Variables = "x","y", "Velocity_x", "Velocity_y", "Velocity_whole value", "Pressure", "Absolute pressure", "Total pressure"
Zone i=62, j=22
 0.0000000e+000  0.0000000e+000  0.0000000e+000  0.0000000e+000  0.0000000e+000  3.1993313e+000  3.1993313e+000  3.1993313e+000 
 1.2291715e-002  0.0000000e+000  0.0000000e+000  0.0000000e+000  0.0000000e+000  3.0087628e+000  3.0087628e+000  3.0087628e+000 
 3.7736509e-002  0.0000000e+000  0.0000000e+000  0.0000000e+000  0.0000000e+000  2.6142716e+000  2.6142716e+000  2.6142716e+000 
 6.4963534e-002  0.0000000e+000  0.0000000e+000  0.0000000e+000  0.0000000e+000  2.3547757e+000  2.3547757e+000  2.3547757e+000 
 9.4095588e-002  0.0000000e+000  0.0000000e+000  0.0000000e+000  0.0000000e+000  2.1873562e+000  2.1873562e+000  2.1873562e+000 
 1.2526625e-001  0.0000000e+000  0.0000000e+000  0.0000000e+000  0.0000000e+000  2.0825715e+000  2.0825715e+000  2.0825715e+000 
 1.5861896e-001  0.0000000e+000  0.0000000e+000  0.0000000e+000  0.0000000e+000  2.0241528e+000  2.0241528e+000  2.0241528e+000 
 1.9430619e-001  0.0000000e+000  0.0000000e+000  0.0000000e+000  0.0000000e+000  1.9935380e+000  1.9935380e+000  1.9935380e+000 
 2.3249130e-001  0.0000000e+000  0.0000000e+000  0.0000000e+000  0.0000000e+000  1.9761626e+000  1.9761626e+000  1.9761626e+000 
 2.7334976e-001  0.0000000e+000  0.0000000e+000  0.0000000e+000  0.0000000e+000  1.9635066e+000  1.9635066e+000  1.9635066e+000 
 3.1706923e-001  0.0000000e+000  0.0000000e+000  0.0000000e+000  0.0000000e+000  1.9519826e+000  1.9519826e+000  1.9519826e+000 
 3.6384889e-001  0.0000000e+000  0.0000000e+000  0.0000000e+000  0.0000000e+000  1.9404945e+000  1.9404945e+000  1.9404945e+000 
 4.1390228e-001  0.0000000e+000  0.0000000e+000  0.0000000e+000  0.0000000e+000  1.9288580e+000  1.9288580e+000  1.9288580e+000 
 4.6745992e-001  0.0000000e+000  0.0000000e+000  0.0000000e+000  0.0000000e+000  1.9171090e+000  1.9171090e+000  1.9171090e+000 
 5.2476656e-001  0.0000000e+000  0.0000000e+000  0.0000000e+000  0.0000000e+000  1.9051900e+000  1.9051900e+000  1.9051900e+000 
 5.8608472e-001  0.0000000e+000  0.0000000e+000  0.0000000e+000  0.0000000e+000  1.8930088e+000  1.8930088e+000  1.8930088e+000 
 6.5169525e-001  0.0000000e+000  0.0000000e+000  0.0000000e+000  0.0000000e+000  1.8804826e+000  1.8804826e+000  1.8804826e+000 
 7.2189790e-001  0.0000000e+000  0.0000000e+000  0.0000000e+000  0.0000000e+000  1.8675247e+000  1.8675247e+000  1.8675247e+000 
 7.9701531e-001  0.0000000e+000  0.0000000e+000  0.0000000e+000  0.0000000e+000  1.8540754e+000  1.8540754e+000  1.8540754e+000 
 8.7739104e-001  0.0000000e+000  0.0000000e+000  0.0000000e+000  0.0000000e+000  1.8400773e+000  1.8400773e+000  1.8400773e+000 
 9.6339333e-001  0.0000000e+000  0.0000000e+000  0.0000000e+000  0.0000000e+000  1.8254914e+000  1.8254914e+000  1.8254914e+000 
 1.0554160e+000  0.0000000e+000  0.0000000e+000  0.0000000e+000  0.0000000e+000  1.8102918e+000  1.8102918e+000  1.8102918e+000 
 1.1538795e+000  0.0000000e+000  0.0000000e+000  0.0000000e+000  0.0000000e+000  1.7944525e+000  1.7944525e+000  1.7944525e+000 
 1.2592361e+000  0.0000000e+000  0.0000000e+000  0.0000000e+000  0.0000000e+000  1.7779588e+000  1.7779588e+000  1.7779588e+000 
 1.3719671e+000  0.0000000e+000  0.0000000e+000  0.0000000e+000  0.0000000e+000  1.7607940e+000  1.7607940e+000  1.7607940e+000 
 1.4925885e+000  0.0000000e+000  0.0000000e+000  0.0000000e+000  0.0000000e+000  1.7429353e+000  1.7429353e+000  1.7429353e+000 
 1.6216545e+000  0.0000000e+000  0.0000000e+000  0.0000000e+000  0.0000000e+000  1.7243758e+000  1.7243758e+000  1.7243758e+000 
 1.7597550e+000  0.0000000e+000  0.0000000e+000  0.0000000e+000  0.0000000e+000  1.7050904e+000  1.7050904e+000  1.7050904e+000 
 1.9075224e+000  0.0000000e+000  0.0000000e+000  0.0000000e+000  0.0000000e+000  1.6850532e+000  1.6850532e+000  1.6850532e+000 
 2.0656340e+000  0.0000000e+000  0.0000000e+000  0.0000000e+000  0.0000000e+000  1.6642336e+000  1.6642336e+000  1.6642336e+000 
 2.2348135e+000  0.0000000e+000  0.0000000e+000  0.0000000e+000  0.0000000e+000  1.6425964e+000  1.6425964e+000  1.6425964e+000 
 2.4158354e+000  0.0000000e+000  0.0000000e+000  0.0000000e+000  0.0000000e+000  1.6201006e+000  1.6201006e+000  1.6201006e+000 
 2.6095285e+000  0.0000000e+000  0.0000000e+000  0.0000000e+000  0.0000000e+000  1.5967009e+000  1.5967009e+000  1.5967009e+000 
 2.8167806e+000  0.0000000e+000  0.0000000e+000  0.0000000e+000  0.0000000e+000  1.5723469e+000  1.5723469e+000  1.5723469e+000 
 3.0385399e+000  0.0000000e+000  0.0000000e+000  0.0000000e+000  0.0000000e+000  1.5469815e+000  1.5469815e+000  1.5469815e+000 
 3.2758224e+000  0.0000000e+000  0.0000000e+000  0.0000000e+000  0.0000000e+000  1.5205411e+000  1.5205411e+000  1.5205411e+000 
 3.5297146e+000  0.0000000e+000  0.0000000e+000  0.0000000e+000  0.0000000e+000  1.4929539e+000  1.4929539e+000  1.4929539e+000 
 3.8013785e+000  0.0000000e+000  0.0000000e+000  0.0000000e+000  0.0000000e+000  1.4641380e+000  1.4641380e+000  1.4641380e+000 
 4.0920601e+000  0.0000000e+000  0.0000000e+000  0.0000000e+000  0.0000000e+000  1.4340023e+000  1.4340023e+000  1.4340023e+000 
 4.4030900e+000  0.0000000e+000  0.0000000e+000  0.0000000e+000  0.0000000e+000  1.4024429e+000  1.4024429e+000  1.4024429e+000 
 4.7358913e+000  0.0000000e+000  0.0000000e+000  0.0000000e+000  0.0000000e+000  1.3693427e+000  1.3693427e+000  1.3693427e+000 
 5.0919890e+000  0.0000000e+000  0.0000000e+000  0.0000000e+000  0.0000000e+000  1.3345696e+000  1.3345696e+000  1.3345696e+000 
 5.4730139e+000  0.0000000e+000  0.0000000e+000  0.0000000e+000  0.0000000e+000  1.2979764e+000  1.2979764e+000  1.2979764e+000 
 5.8807087e+000  0.0000000e+000  0.0000000e+000  0.0000000e+000  0.0000000e+000  1.2593981e+000  1.2593981e+000  1.2593981e+000 
 6.3169422e+000  0.0000000e+000  0.0000000e+000  0.0000000e+000  0.0000000e+000  1.2186549e+000  1.2186549e+000  1.2186549e+000 
 6.7837143e+000  0.0000000e+000  0.0000000e+000  0.0000000e+000  0.0000000e+000  1.1755466e+000  1.1755466e+000  1.1755466e+000 
 7.2831593e+000  0.0000000e+000  0.0000000e+000  0.0000000e+000  0.0000000e+000  1.1298593e+000  1.1298593e+000  1.1298593e+000 
 7.8175659e+000  0.0000000e+000  0.0000000e+000  0.0000000e+000  0.0000000e+000  1.0813591e+000  1.0813591e+000  1.0813591e+000 
 8.3893795e+000  0.0000000e+000  0.0000000e+000  0.0000000e+000  0.0000000e+000  1.0297973e+000  1.0297973e+000  1.0297973e+000 
 9.0012217e+000  0.0000000e+000  0.0000000e+000  0.0000000e+000  0.0000000e+000  9.7490841e-001  9.7490841e-001  9.7490841e-001 
 9.6558924e+000  0.0000000e+000  0.0000000e+000  0.0000000e+000  0.0000000e+000  9.1641110e-001  9.1641110e-001  9.1641110e-001 
 1.0356388e+001  0.0000000e+000  0.0000000e+000  0.0000000e+000  0.0000000e+000  8.5400856e-001  8.5400856e-001  8.5400856e-001 
 1.1105920e+001  0.0000000e+000  0.0000000e+000  0.0000000e+000  0.0000000e+000  7.8738743e-001  7.8738743e-001  7.8738743e-001 
 1.1907920e+001  0.0000000e+000  0.0000000e+000  0.0000000e+000  0.0000000e+000  7.1621776e-001  7.1621776e-001  7.1621776e-001 
 1.2766060e+001  0.0000000e+000  0.0000000e+000  0.0000000e+000  0.0000000e+000  6.4015263e-001  6.4015263e-001  6.4015263e-001 
 1.3684270e+001  0.0000000e+000  0.0000000e+000  0.0000000e+000  0.0000000e+000  5.5882579e-001  5.5882579e-001  5.5882579e-001 
 1.4666756e+001  0.0000000e+000  0.0000000e+000  0.0000000e+000  0.0000000e+000  4.7185060e-001  4.7185060e-001  4.7185060e-001 
 1.5718015e+001  0.0000000e+000  0.0000000e+000  0.0000000e+000  0.0000000e+000  3.7881738e-001  3.7881738e-001  3.7881738e-001 
 1.6842865e+001  0.0000000e+000  0.0000000e+000  0.0000000e+000  0.0000000e+000  2.7929157e-001  2.7929157e-001  2.7929157e-001 
 1.8046452e+001  0.0000000e+000  0.0000000e+000  0.0000000e+000  0.0000000e+000  1.7281252e-001  1.7281252e-001  1.7281252e-001 
 1.9334295e+001  0.0000000e+000  0.0000000e+000  0.0000000e+000  0.0000000e+000  5.8886018e-002  5.8886018e-002  5.8886018e-002 
 2.0000000e+001  0.0000000e+000  0.0000000e+000  0.0000000e+000  0.0000000e+000 -4.1688872e-006 -4.1688872e-006 -4.1688872e-006 
 0.0000000e+000  1.5686335e-002  1.0000000e+000  0.0000000e+000  1.0000000e+000  2.9811909e+000  2.9811909e+000  3.4811909e+000 
 1.2291715e-002  1.5686335e-002  9.3872988e-001  1.6918947e-001  9.5385474e-001  2.8343046e+000  2.8343046e+000  3.2892239e+000 
 3.7736509e-002  1.5686335e-002  8.0236745e-001  1.5575022e-001  8.1734425e-001  2.5302391e+000  2.5302391e+000  2.8642650e+000 
 6.4963534e-002  1.5686335e-002  6.4912897e-001  1.0902126e-001  6.5822035e-001  2.3212714e+000  2.3212714e+000  2.5378985e+000 
 9.4095588e-002  1.5686335e-002  5.1534986e-001  6.4812541e-002  5.1940942e-001  2.1813180e+000  2.1813180e+000  2.3162112e+000 
 1.2526625e-001  1.5686335e-002  4.1376260e-001  3.3577990e-002  4.1512284e-001  2.0903370e+000  2.0903370e+000  2.1765006e+000 
 1.5861896e-001  1.5686335e-002  3.4193879e-001  1.4743550e-002  3.4225649e-001  2.0362940e+000  2.0362940e+000  2.0948637e+000 
 1.9430619e-001  1.5686335e-002  2.9301846e-001  5.2950149e-003  2.9306629e-001  2.0050657e+000  2.0050657e+000  2.0480096e+000 
 2.3249130e-001  1.5686335e-002  2.5945121e-001  1.4705001e-003  2.5945538e-001  1.9853187e+000  1.9853187e+000  2.0189772e+000 
 2.7334976e-001  1.5686335e-002  2.3517130e-001  3.4526151e-004  2.3517156e-001  1.9702406e+000  1.9702406e+000  1.9978935e+000 
 3.1706923e-001  1.5686335e-002  2.1636634e-001  1.7532652e-004  2.1636641e-001  1.9568319e+000  1.9568319e+000  1.9802392e+000 
 3.6384889e-001  1.5686335e-002  2.0104772e-001  2.2761471e-004  2.0104785e-001  1.9440123e+000  1.9440123e+000  1.9642224e+000 
 4.1390228e-001  1.5686335e-002  1.8820018e-001  2.7500940e-004  1.8820037e-001  1.9314644e+000  1.9314644e+000  1.9491742e+000 
 4.6745992e-001  1.5686335e-002  1.7730074e-001  2.7080774e-004  1.7730094e-001  1.9190841e+000  1.9190841e+000  1.9348019e+000 
 5.2476656e-001  1.5686335e-002  1.6801675e-001  2.4701571e-004  1.6801693e-001  1.9067123e+000  1.9067123e+000  1.9208272e+000 
 5.8608472e-001  1.5686335e-002  1.6006313e-001  2.1914157e-004  1.6006328e-001  1.8941983e+000  1.8941983e+000  1.9070084e+000 
 6.5169525e-001  1.5686335e-002  1.5320939e-001  1.9102808e-004  1.5320951e-001  1.8814230e+000  1.8814230e+000  1.8931596e+000 
 7.2189790e-001  1.5686335e-002  1.4726359e-001  1.6756225e-004  1.4726368e-001  1.8682756e+000  1.8682756e+000  1.8791189e+000 
 7.9701531e-001  1.5686335e-002  1.4206749e-001  1.4631318e-004  1.4206757e-001  1.8546809e+000  1.8546809e+000  1.8647724e+000 
 8.7739104e-001  1.5686335e-002  1.3749249e-001  1.2889596e-004  1.3749255e-001  1.8405701e+000  1.8405701e+000  1.8500222e+000 
 9.6339333e-001  1.5686335e-002  1.3342723e-001  1.1426067e-004  1.3342728e-001  1.8258964e+000  1.8258964e+000  1.8347979e+000 
 1.0554160e+000  1.5686335e-002  1.2978542e-001  1.0128256e-004  1.2978546e-001  1.8106276e+000  1.8106276e+000  1.8190497e+000 
 1.1538795e+000  1.5686335e-002  1.2649582e-001  9.0479851e-005  1.2649585e-001  1.7947338e+000  1.7947338e+000  1.8027344e+000 
 1.2592361e+000  1.5686335e-002  1.2350048e-001  8.0864862e-005  1.2350051e-001  1.7781960e+000  1.7781960e+000  1.7858222e+000 
 1.3719671e+000  1.5686335e-002  1.2075798e-001  7.2072900e-005  1.2075800e-001  1.7609957e+000  1.7609957e+000  1.7682869e+000 
 1.4925885e+000  1.5686335e-002  1.1822750e-001  6.4973996e-005  1.1822752e-001  1.7431080e+000  1.7431080e+000  1.7500969e+000 
 1.6216545e+000  1.5686335e-002  1.1588003e-001  5.7905207e-005  1.1588005e-001  1.7245246e+000  1.7245246e+000  1.7312387e+000 
 1.7597550e+000  1.5686335e-002  1.1369873e-001  5.1580493e-005  1.1369874e-001  1.7052189e+000  1.7052189e+000  1.7116826e+000 
 1.9075224e+000  1.5686335e-002  1.1166720e-001  4.5867528e-005  1.1166721e-001  1.6851643e+000  1.6851643e+000  1.6913991e+000 
 2.0656340e+000  1.5686335e-002  1.0977276e-001  4.0731033e-005  1.0977277e-001  1.6643299e+000  1.6643299e+000  1.6703550e+000 
 2.2348135e+000  1.5686335e-002  1.0800600e-001  3.6147321e-005  1.0800601e-001  1.6426799e+000  1.6426799e+000  1.6485126e+000 
 2.4158354e+000  1.5686335e-002  1.0635863e-001  3.1834428e-005  1.0635864e-001  1.6201731e+000  1.6201731e+000  1.6258292e+000 
 2.6095285e+000  1.5686335e-002  1.0482377e-001  2.8113403e-005  1.0482378e-001  1.5967637e+000  1.5967637e+000  1.6022577e+000 
 2.8167806e+000  1.5686335e-002  1.0339589e-001  2.4613759e-005  1.0339589e-001  1.5724014e+000  1.5724014e+000  1.5777467e+000 
 3.0385399e+000  1.5686335e-002  1.0207085e-001  2.1514064e-005  1.0207085e-001  1.5470285e+000  1.5470285e+000  1.5522377e+000 
 3.2758224e+000  1.5686335e-002  1.0084523e-001  1.8738732e-005  1.0084523e-001  1.5205816e+000  1.5205816e+000  1.5256665e+000 
 3.5297146e+000  1.5686335e-002  9.9716321e-002  1.6264277e-005  9.9716321e-002  1.4929883e+000  1.4929883e+000  1.4979600e+000 
 3.8013785e+000  1.5686335e-002  9.8681994e-002  1.3977238e-005  9.8681994e-002  1.4641676e+000  1.4641676e+000  1.4690367e+000 
 4.0920601e+000  1.5686335e-002  9.7740352e-002  1.1904129e-005  9.7740352e-002  1.4340273e+000  1.4340273e+000  1.4388039e+000 
 4.4030900e+000  1.5686335e-002  9.6889555e-002  1.0050504e-005  9.6889555e-002  1.4024639e+000  1.4024639e+000  1.4071577e+000 
 4.7358913e+000  1.5686335e-002  9.6127674e-002  8.4890553e-006  9.6127674e-002  1.3693601e+000  1.3693601e+000  1.3739804e+000 
 5.0919890e+000  1.5686335e-002  9.5452011e-002  7.0477868e-006  9.5452011e-002  1.3345839e+000  1.3345839e+000  1.3391395e+000 
 5.4730139e+000  1.5686335e-002  9.4859742e-002  5.7215175e-006  9.4859742e-002  1.2979881e+000  1.2979881e+000  1.3024873e+000 
 5.8807087e+000  1.5686335e-002  9.4346888e-002  4.6522791e-006  9.4346888e-002  1.2594075e+000  1.2594075e+000  1.2638582e+000 
 6.3169422e+000  1.5686335e-002  9.3908854e-002  3.7730449e-006  9.3908854e-002  1.2186623e+000  1.2186623e+000  1.2230717e+000 
 6.7837143e+000  1.5686335e-002  9.3540452e-002  2.9198115e-006  9.3540452e-002  1.1755525e+000  1.1755525e+000  1.1799273e+000 
 7.2831593e+000  1.5686335e-002  9.3235515e-002  2.1988665e-006  9.3235515e-002  1.1298637e+000  1.1298637e+000  1.1342102e+000 
 7.8175659e+000  1.5686335e-002  9.2987508e-002  1.5964090e-006  9.2987508e-002  1.0813625e+000  1.0813625e+000  1.0856858e+000 
 8.3893795e+000  1.5686335e-002  9.2789590e-002  1.1381464e-006  9.2789590e-002  1.0297998e+000  1.0297998e+000  1.0341048e+000 
 9.0012217e+000  1.5686335e-002  9.2634805e-002  9.3403742e-007  9.2634805e-002  9.7491026e-001  9.7491026e-001  9.7920084e-001 
 9.6558924e+000  1.5686335e-002  9.2516288e-002  6.4863372e-007  9.2516288e-002  9.1641241e-001  9.1641241e-001  9.2069203e-001 
 1.0356388e+001  1.5686335e-002  9.2427596e-002  4.7648297e-007  9.2427596e-002  8.5400951e-001  8.5400951e-001  8.5828096e-001 
 1.1105920e+001  1.5686335e-002  9.2362843e-002  3.0213712e-007  9.2362843e-002  7.8738809e-001  7.8738809e-001  7.9165351e-001 
 1.1907920e+001  1.5686335e-002  9.2316739e-002  1.9069684e-007  9.2316739e-002  7.1621823e-001  7.1621823e-001  7.2047943e-001 
 1.2766060e+001  1.5686335e-002  9.2284843e-002  1.0017875e-007  9.2284843e-002  6.4015293e-001  6.4015293e-001  6.4441121e-001 
 1.3684270e+001  1.5686335e-002  9.2263326e-002  8.1058822e-008  9.2263326e-002  5.5882597e-001  5.5882597e-001  5.6308222e-001 
 1.4666756e+001  1.5686335e-002  9.2249297e-002  4.7130907e-008  9.2249297e-002  4.7185069e-001  4.7185069e-001  4.7610566e-001 
 1.5718015e+001  1.5686335e-002  9.2240453e-002  4.0504649e-008  9.2240453e-002  3.7881741e-001  3.7881741e-001  3.8307157e-001 
 1.6842865e+001  1.5686335e-002  9.2234991e-002  1.9458296e-008  9.2234991e-002  2.7929160e-001  2.7929160e-001  2.8354526e-001 
 1.8046452e+001  1.5686335e-002  9.2231937e-002  1.2415682e-008  9.2231937e-002  1.7281254e-001  1.7281254e-001  1.7706589e-001 
 1.9334295e+001  1.5686335e-002  9.2229702e-002 -5.7739893e-008  9.2229702e-002  5.8885943e-002  5.8885943e-002  6.3139103e-002 
 2.0000000e+001  1.5686335e-002  9.2229702e-002 -5.8445703e-008  9.2229702e-002  0.0000000e+000  0.0000000e+000  4.2531588e-003 
 0.0000000e+000  4.8627645e-002  1.0000000e+000  0.0000000e+000  1.0000000e+000  2.5230966e+000  2.5230966e+000  3.0230966e+000 
 1.2291715e-002  4.8627645e-002  1.0340573e+000  1.1452221e-001  1.0403796e+000  2.4679430e+000  2.4679430e+000  3.0091379e+000 
 3.7736509e-002  4.8627645e-002  1.0742037e+000  2.0424916e-001  1.0934494e+000  2.3537707e+000  2.3537707e+000  2.9515865e+000 
 6.4963534e-002  4.8627645e-002  1.0697221e+000  2.1066575e-001  1.0902685e+000  2.2509124e+000  2.2509124e+000  2.8452551e+000 
 9.4095588e-002  4.8627645e-002  1.0306009e+000  1.8498835e-001  1.0470716e+000  2.1686380e+000  2.1686380e+000  2.7168174e+000 
 1.2526625e-001  4.8627645e-002  9.6786094e-001  1.4378059e-001  9.7848231e-001  2.1066449e+000  2.1066449e+000  2.5853586e+000 
 1.5861896e-001  4.8627645e-002  8.9395624e-001  1.0288644e-001  8.9985740e-001  2.0617907e+000  2.0617907e+000  2.4666624e+000 
 1.9430619e-001  4.8627645e-002  8.1903464e-001  7.1045831e-002  8.2211024e-001  2.0292737e+000  2.0292737e+000  2.3672063e+000 
 2.3249130e-001  4.8627645e-002  7.5006807e-001  4.9151465e-002  7.5167680e-001  2.0045464e+000  2.0045464e+000  2.2870555e+000 
 2.7334976e-001  4.8627645e-002  6.8963128e-001  3.5065506e-002  6.9052219e-001  1.9843820e+000  1.9843820e+000  2.2227924e+000 
 3.1706923e-001  4.8627645e-002  6.3793641e-001  2.5894120e-002  6.3846171e-001  1.9670160e+000  1.9670160e+000  2.1708326e+000 
 3.6384889e-001  4.8627645e-002  5.9415072e-001  1.9684931e-002  5.9447670e-001  1.9513999e+000  1.9513999e+000  2.1281011e+000 
 4.1390228e-001  4.8627645e-002  5.5698657e-001  1.5266920e-002  5.5719578e-001  1.9369380e+000  1.9369380e+000  2.0921717e+000 
 4.6745992e-001  4.8627645e-002  5.2529061e-001  1.1966067e-002  5.2542686e-001  1.9232318e+000  1.9232318e+000  2.0612686e+000 
 5.2476656e-001  4.8627645e-002  4.9813509e-001  9.4689056e-003  4.9822506e-001  1.9099094e+000  1.9099094e+000  2.0340235e+000 
 5.8608472e-001  4.8627645e-002  4.7474018e-001  7.5629293e-003  4.7480041e-001  1.8966966e+000  1.8966966e+000  2.0094142e+000 
 6.5169525e-001  4.8627645e-002  4.5448631e-001  6.0880329e-003  4.5452708e-001  1.8833981e+000  1.8833981e+000  1.9866955e+000 
 7.2189790e-001  4.8627645e-002  4.3685770e-001  4.9447310e-003  4.3688568e-001  1.8698524e+000  1.8698524e+000  1.9652870e+000 
 7.9701531e-001  4.8627645e-002  4.2142519e-001  4.0473905e-003  4.2144462e-001  1.8559523e+000  1.8559523e+000  1.9447601e+000 
 8.7739104e-001  4.8627645e-002  4.0783247e-001  3.3430518e-003  4.0784618e-001  1.8416049e+000  1.8416049e+000  1.9247742e+000 
 9.6339333e-001  4.8627645e-002  3.9577007e-001  2.7866487e-003  3.9577988e-001  1.8267468e+000  1.8267468e+000  1.9050677e+000 
 1.0554160e+000  4.8627645e-002  3.8498920e-001  2.3417701e-003  3.8499632e-001  1.8113331e+000  1.8113331e+000  1.8854442e+000 
 1.1538795e+000  4.8627645e-002  3.7528151e-001  1.9849348e-003  3.7528676e-001  1.7953242e+000  1.7953242e+000  1.8657442e+000 
 1.2592361e+000  4.8627645e-002  3.6647505e-001  1.6939279e-003  3.6647895e-001  1.7786942e+000  1.7786942e+000  1.8458476e+000 
 1.3719671e+000  4.8627645e-002  3.5844097e-001  1.4547018e-003  3.5844392e-001  1.7614194e+000  1.7614194e+000  1.8256605e+000 
 1.4925885e+000  4.8627645e-002  3.5105771e-001  1.2586508e-003  3.5105997e-001  1.7434708e+000  1.7434708e+000  1.8050923e+000 
 1.6216545e+000  4.8627645e-002  3.4423438e-001  1.0919584e-003  3.4423611e-001  1.7248369e+000  1.7248369e+000  1.7840862e+000 
 1.7597550e+000  4.8627645e-002  3.3791313e-001  9.4958022e-004  3.3791447e-001  1.7054887e+000  1.7054887e+000  1.7625818e+000 
 1.9075224e+000  4.8627645e-002  3.3204237e-001  8.2735193e-004  3.3204341e-001  1.6853980e+000  1.6853980e+000  1.7405244e+000 
 2.0656340e+000  4.8627645e-002  3.2658124e-001  7.2106667e-004  3.2658204e-001  1.6645325e+000  1.6645325e+000  1.7178605e+000 
 2.2348135e+000  4.8627645e-002  3.2149893e-001  6.2845519e-004  3.2149956e-001  1.6428556e+000  1.6428556e+000  1.6945366e+000 
 2.4158354e+000  4.8627645e-002  3.1676942e-001  5.4755656e-004  3.1676990e-001  1.6203256e+000  1.6203256e+000  1.6704972e+000 
 2.6095285e+000  4.8627645e-002  3.1237072e-001  4.7643870e-004  3.1237108e-001  1.5968959e+000  1.5968959e+000  1.6456838e+000 
 2.8167806e+000  4.8627645e-002  3.0828550e-001  4.1393260e-004  3.0828577e-001  1.5725157e+000  1.5725157e+000  1.6200358e+000 
 3.0385399e+000  4.8627645e-002  3.0450034e-001  3.5846615e-004  3.0450055e-001  1.5471274e+000  1.5471274e+000  1.5934876e+000 
 3.2758224e+000  4.8627645e-002  3.0100423e-001  3.0923149e-004  3.0100438e-001  1.5206666e+000  1.5206666e+000  1.5659684e+000 
 3.5297146e+000  4.8627645e-002  2.9778862e-001  2.6565368e-004  2.9778874e-001  1.4930612e+000  1.4930612e+000  1.5374002e+000 
 3.8013785e+000  4.8627645e-002  2.9484636e-001  2.2676738e-004  2.9484645e-001  1.4642296e+000  1.4642296e+000  1.5076967e+000 
 4.0920601e+000  4.8627645e-002  2.9217091e-001  1.9228498e-004  2.9217097e-001  1.4340798e+000  1.4340798e+000  1.4767617e+000 
 4.4030900e+000  4.8627645e-002  2.8975645e-001  1.6176276e-004  2.8975651e-001  1.4025079e+000  1.4025079e+000  1.4444873e+000 
 4.7358913e+000  4.8627645e-002  2.8759643e-001  1.3475840e-004  2.8759646e-001  1.3693967e+000  1.3693967e+000  1.4107525e+000 
 5.0919890e+000  4.8627645e-002  2.8568286e-001  1.1117403e-004  2.8568289e-001  1.3346140e+000  1.3346140e+000  1.3754214e+000 
 5.4730139e+000  4.8627645e-002  2.8400692e-001  9.0473186e-005  2.8400692e-001  1.2980125e+000  1.2980125e+000  1.3383424e+000 
 5.8807087e+000  4.8627645e-002  2.8255671e-001  7.2819261e-005  2.8255671e-001  1.2594272e+000  1.2594272e+000  1.2993463e+000 
 6.3169422e+000  4.8627645e-002  2.8131905e-001  5.7644374e-005  2.8131905e-001  1.2186779e+000  1.2186779e+000  1.2582481e+000 
 6.7837143e+000  4.8627645e-002  2.8027853e-001  4.5008750e-005  2.8027853e-001  1.1755648e+000  1.1755648e+000  1.2148428e+000 
 7.2831593e+000  4.8627645e-002  2.7941775e-001  3.4577970e-005  2.7941775e-001  1.1298730e+000  1.1298730e+000  1.1689101e+000 
 7.8175659e+000  4.8627645e-002  2.7871796e-001  2.6111842e-005  2.7871796e-001  1.0813695e+000  1.0813695e+000  1.1202114e+000 
 8.3893795e+000  4.8627645e-002  2.7815965e-001  1.9318233e-005  2.7815965e-001  1.0298051e+000  1.0298051e+000  1.0684915e+000 
 9.0012217e+000  4.8627645e-002  2.7772307e-001  1.3924696e-005  2.7772307e-001  9.7491407e-001  9.7491407e-001  1.0134791e+000 
 9.6558924e+000  4.8627645e-002  2.7738884e-001  9.8903465e-006  2.7738884e-001  9.1641510e-001  9.1641510e-001  9.5488739e-001 
 1.0356388e+001  4.8627645e-002  2.7713871e-001  6.8012141e-006  2.7713871e-001  8.5401136e-001  8.5401136e-001  8.9241427e-001 
 1.1105920e+001  4.8627645e-002  2.7695617e-001  4.6211767e-006  2.7695617e-001  7.8738934e-001  7.8738934e-001  8.2574171e-001 
 1.1907920e+001  4.8627645e-002  2.7682614e-001  3.0385995e-006  2.7682614e-001  7.1621907e-001  7.1621907e-001  7.5453544e-001 
 1.2766060e+001  4.8627645e-002  2.7673617e-001  1.9432068e-006  2.7673617e-001  6.4015341e-001  6.4015341e-001  6.7844486e-001 
 1.3684270e+001  4.8627645e-002  2.7667552e-001  1.1855376e-006  2.7667552e-001  5.5882633e-001  5.5882633e-001  5.9710097e-001 
 1.4666756e+001  4.8627645e-002  2.7663594e-001  7.2636595e-007  2.7663594e-001  4.7185087e-001  4.7185087e-001  5.1011461e-001 
 1.5718015e+001  4.8627645e-002  2.7661097e-001  4.4379740e-007  2.7661097e-001  3.7881750e-001  3.7881750e-001  4.1707432e-001 
 1.6842865e+001  4.8627645e-002  2.7659559e-001  2.4742604e-007  2.7659559e-001  2.7929166e-001  2.7929166e-001  3.1754422e-001 
 1.8046452e+001  4.8627645e-002  2.7658698e-001  1.3462243e-007  2.7658698e-001  1.7281258e-001  1.7281258e-001  2.1106276e-001 
 1.9334295e+001  4.8627645e-002  2.7658063e-001  1.1214197e-007  2.7658063e-001  5.8885798e-002  5.8885798e-002  9.7134218e-002 
 2.0000000e+001  4.8627645e-002  2.7658063e-001  1.1203617e-007  2.7658063e-001  0.0000000e+000  0.0000000e+000  3.8248423e-002 
 0.0000000e+000  8.4863111e-002  1.0000000e+000  0.0000000e+000  1.0000000e+000  2.3108208e+000  2.3108208e+000  2.8108208e+000 
 1.2291715e-002  8.4863111e-002  1.0111212e+000  4.8145108e-002  1.0122668e+000  2.2985759e+000  2.2985759e+000  2.8109179e+000 
 3.7736509e-002  8.4863111e-002  1.0488713e+000  1.2191974e-001  1.0559335e+000  2.2732286e+000  2.2732286e+000  2.8307264e+000 
 6.4963534e-002  8.4863111e-002  1.0931450e+000  1.6533767e-001  1.1055779e+000  2.2190380e+000  2.2190380e+000  2.8301892e+000 
 9.4095588e-002  8.4863111e-002  1.1231945e+000  1.7779638e-001  1.1371796e+000  2.1616378e+000  2.1616378e+000  2.8082263e+000 
 1.2526625e-001  8.4863111e-002  1.1316552e+000  1.7271473e-001  1.1447593e+000  2.1091256e+000  2.1091256e+000  2.7643626e+000 
 1.5861896e-001  8.4863111e-002  1.1218214e+000  1.5536030e-001  1.1325282e+000  2.0664482e+000  2.0664482e+000  2.7077582e+000 
 1.9430619e-001  8.4863111e-002  1.0950530e+000  1.3293216e-001  1.1030920e+000  2.0349240e+000  2.0349240e+000  2.6433301e+000 
 2.3249130e-001  8.4863111e-002  1.0571986e+000  1.0993598e-001  1.0628992e+000  2.0105340e+000  2.0105340e+000  2.5754116e+000 
 2.7334976e-001  8.4863111e-002  1.0134155e+000  8.9536995e-002  1.0173632e+000  1.9904233e+000  1.9904233e+000  2.5079372e+000 
 3.1706923e-001  8.4863111e-002  9.6747458e-001  7.2149485e-002  9.7016114e-001  1.9728405e+000  1.9728405e+000  2.4434469e+000 
 3.6384889e-001  8.4863111e-002  9.2232347e-001  5.7892334e-002  9.2413855e-001  1.9566487e+000  1.9566487e+000  2.3836648e+000 
 4.1390228e-001  8.4863111e-002  8.7935734e-001  4.6474166e-002  8.8058454e-001  1.9414580e+000  1.9414580e+000  2.3291726e+000 
 4.6745992e-001  8.4863111e-002  8.3942968e-001  3.7311152e-002  8.4025848e-001  1.9270053e+000  1.9270053e+000  2.2800224e+000 
 5.2476656e-001  8.4863111e-002  8.0297774e-001  3.0024713e-002  8.0353886e-001  1.9129776e+000  1.9129776e+000  2.2358150e+000 
 5.8608472e-001  8.4863111e-002  7.7007574e-001  2.4246437e-002  7.7045733e-001  1.8991560e+000  1.8991560e+000  2.1959581e+000 
 6.5169525e-001  8.4863111e-002  7.4059838e-001  1.9654620e-002  7.4085915e-001  1.8853580e+000  1.8853580e+000  2.1597941e+000 
 7.2189790e-001  8.4863111e-002  7.1428221e-001  1.6019726e-002  7.1446186e-001  1.8714106e+000  1.8714106e+000  2.1266384e+000 
 7.9701531e-001  8.4863111e-002  6.9080472e-001  1.3130784e-002  6.9092953e-001  1.8571949e+000  1.8571949e+000  2.0958867e+000 
 8.7739104e-001  8.4863111e-002  6.6983885e-001  1.0839608e-002  6.6992652e-001  1.8426001e+000  1.8426001e+000  2.0670009e+000 
 9.6339333e-001  8.4863111e-002  6.5105420e-001  9.0164626e-003  6.5111661e-001  1.8275491e+000  1.8275491e+000  2.0395255e+000 
 1.0554160e+000  8.4863111e-002  6.3415885e-001  7.5545111e-003  6.3420385e-001  1.8119851e+000  1.8119851e+000  2.0130923e+000 
 1.1538795e+000  8.4863111e-002  6.1888844e-001  6.3791284e-003  6.1892134e-001  1.7958583e+000  1.7958583e+000  1.9873900e+000 
 1.2592361e+000  8.4863111e-002  6.0501051e-001  5.4224166e-003  6.0503483e-001  1.7791357e+000  1.7791357e+000  1.9621693e+000 
 1.3719671e+000  8.4863111e-002  5.9234214e-001  4.6379743e-003  5.9236032e-001  1.7617873e+000  1.7617873e+000  1.9372326e+000 
 1.4925885e+000  8.4863111e-002  5.8070570e-001  3.9956290e-003  5.8071947e-001  1.7437799e+000  1.7437799e+000  1.9123974e+000 
 1.6216545e+000  8.4863111e-002  5.6996363e-001  3.4543367e-003  5.6997412e-001  1.7250988e+000  1.7250988e+000  1.8875341e+000 
 1.7597550e+000  8.4863111e-002  5.6002229e-001  2.9946708e-003  5.6003028e-001  1.7057120e+000  1.7057120e+000  1.8625289e+000 
 1.9075224e+000  8.4863111e-002  5.5080038e-001  2.6013772e-003  5.5080652e-001  1.6855892e+000  1.6855892e+000  1.8372831e+000 
 2.0656340e+000  8.4863111e-002  5.4223210e-001  2.2622265e-003  5.4223680e-001  1.6646967e+000  1.6646967e+000  1.8117070e+000 
 2.2348135e+000  8.4863111e-002  5.3426701e-001  1.9675943e-003  5.3427064e-001  1.6429969e+000  1.6429969e+000  1.7857195e+000 
 2.4158354e+000  8.4863111e-002  5.2686310e-001  1.7109422e-003  5.2686590e-001  1.6204472e+000  1.6204472e+000  1.7592410e+000 
 2.6095285e+000  8.4863111e-002  5.1998472e-001  1.4862112e-003  5.1998687e-001  1.5970007e+000  1.5970007e+000  1.7321938e+000 
 2.8167806e+000  8.4863111e-002  5.1360404e-001  1.2885076e-003  5.1360565e-001  1.5726057e+000  1.5726057e+000  1.7045012e+000 
 3.0385399e+000  8.4863111e-002  5.0769883e-001  1.1142690e-003  5.0770009e-001  1.5472047e+000  1.5472047e+000  1.6760844e+000 
 3.2758224e+000  8.4863111e-002  5.0225127e-001  9.5997623e-004  5.0225216e-001  1.5207329e+000  1.5207329e+000  1.6468616e+000 
 3.5297146e+000  8.4863111e-002  4.9724707e-001  8.2318479e-004  4.9724776e-001  1.4931177e+000  1.4931177e+000  1.6167454e+000 
 3.8013785e+000  8.4863111e-002  4.9267378e-001  7.0196693e-004  4.9267429e-001  1.4642775e+000  1.4642775e+000  1.5856415e+000 
 4.0920601e+000  8.4863111e-002  4.8852053e-001  5.9442362e-004  4.8852089e-001  1.4341203e+000  1.4341203e+000  1.5534467e+000 
 4.4030900e+000  8.4863111e-002  4.8477697e-001  4.9941696e-004  4.8477724e-001  1.4025418e+000  1.4025418e+000  1.5200462e+000 
 4.7358913e+000  8.4863111e-002  4.8143166e-001  4.1567383e-004  4.8143184e-001  1.3694248e+000  1.3694248e+000  1.4853132e+000 
 5.0919890e+000  8.4863111e-002  4.7847125e-001  3.4230857e-004  4.7847137e-001  1.3346372e+000  1.3346372e+000  1.4491045e+000 
 5.4730139e+000  8.4863111e-002  4.7588107e-001  2.7864016e-004  4.7588116e-001  1.2980312e+000  1.2980312e+000  1.4112626e+000 
 5.8807087e+000  8.4863111e-002  4.7364169e-001  2.2393036e-004  4.7364175e-001  1.2594423e+000  1.2594423e+000  1.3716105e+000 
 6.3169422e+000  8.4863111e-002  4.7173214e-001  1.7743936e-004  4.7173217e-001  1.2186897e+000  1.2186897e+000  1.3299553e+000 