Variables = "x","y","z", "Shear Stress_x", "Shear Stress_y", "Shear Stress_z", "Shear Stress_circ", "Skin Friction"
Zone i=1, j=22, k=2
 0.0000000e+000  0.0000000e+000  0.0000000e+000  1.0000000e+000  0.0000000e+000  0.0000000e+000  0.0000000e+000  7.5025791e-001 
 0.0000000e+000  1.5686335e-002  0.0000000e+000  1.0000000e+000  0.0000000e+000  0.0000000e+000 -1.0000000e+000 -1.3531077e-001 
 0.0000000e+000  4.8627645e-002  0.0000000e+000  1.0000000e+000  0.0000000e+000  0.0000000e+000 -1.0000000e+000  7.1776591e-002 
 0.0000000e+000  8.4863111e-002  0.0000000e+000  1.0000000e+000  0.0000000e+000  0.0000000e+000 -1.0000000e+000  2.4458129e-002 
 0.0000000e+000  1.2472210e-001  0.0000000e+000  1.0000000e+000  0.0000000e+000  0.0000000e+000 -1.0000000e+000  1.1246125e-002 
 0.0000000e+000  1.6856700e-001  0.0000000e+000  1.0000000e+000  0.0000000e+000  0.0000000e+000 -1.0000000e+000  6.5447087e-003 
 0.0000000e+000  2.1679640e-001  0.0000000e+000  1.0000000e+000  0.0000000e+000  0.0000000e+000 -1.0000000e+000  4.1841734e-003 
 0.0000000e+000  2.6984873e-001  0.0000000e+000  1.0000000e+000  0.0000000e+000  0.0000000e+000 -1.0000000e+000  2.7231879e-003 
 0.0000000e+000  3.2820630e-001  0.0000000e+000  1.0000000e+000  0.0000000e+000  0.0000000e+000 -1.0000000e+000  1.7167415e-003 
 0.0000000e+000  3.9239961e-001  0.0000000e+000  1.0000000e+000  0.0000000e+000  0.0000000e+000 -1.0000000e+000  9.5731119e-004 
 0.0000000e+000  4.6301234e-001  0.0000000e+000  1.0000000e+000  0.0000000e+000  0.0000000e+000 -1.0000000e+000  3.2169936e-004 
 0.0000000e+000  5.3838348e-001  0.0000000e+000  1.0000000e+000  0.0000000e+000  0.0000000e+000 -1.0000000e+000  3.2486516e-004 
 0.0000000e+000  6.1131215e-001  0.0000000e+000  1.0000000e+000  0.0000000e+000  0.0000000e+000 -1.0000000e+000  9.8234531e-004 
 0.0000000e+000  6.7694795e-001  0.0000000e+000  1.0000000e+000  0.0000000e+000  0.0000000e+000 -1.0000000e+000  1.7744568e-003 
 0.0000000e+000  7.3602021e-001  0.0000000e+000  1.0000000e+000  0.0000000e+000  0.0000000e+000 -1.0000000e+000  2.8324795e-003 
 0.0000000e+000  7.8918511e-001  0.0000000e+000  1.0000000e+000  0.0000000e+000  0.0000000e+000 -1.0000000e+000  4.3825745e-003 
 0.0000000e+000  8.3703363e-001  0.0000000e+000  1.0000000e+000  0.0000000e+000  0.0000000e+000 -1.0000000e+000  6.9227605e-003 
 0.0000000e+000  8.8009727e-001  0.0000000e+000  1.0000000e+000  0.0000000e+000  0.0000000e+000 -1.0000000e+000  1.2077702e-002 
 0.0000000e+000  9.1885448e-001  0.0000000e+000  1.0000000e+000  0.0000000e+000  0.0000000e+000 -1.0000000e+000  2.7006438e-002 
 0.0000000e+000  9.5373595e-001  0.0000000e+000  1.0000000e+000  0.0000000e+000  0.0000000e+000 -1.0000000e+000  7.9202406e-002 
 0.0000000e+000  9.8512936e-001  0.0000000e+000  1.0000000e+000  0.0000000e+000  0.0000000e+000 -1.0000000e+000 -1.4349560e-001 
 0.0000000e+000  1.0000000e+000  0.0000000e+000  1.0000000e+000  0.0000000e+000  0.0000000e+000 -1.0000000e+000  7.9340541e-001 
 0.0000000e+000  0.0000000e+000  1.0000000e+000  7.2166234e-001  9.2547874e-005  0.0000000e+000  0.0000000e+000  7.5025791e-001 
 0.0000000e+000  1.5686335e-002  1.0000000e+000  2.0567897e-001 -3.1140371e-004  0.0000000e+000 -2.0567897e-001 -1.3531077e-001 
 0.0000000e+000  4.8627645e-002  1.0000000e+000 -5.7499141e-002  1.1043495e-004  0.0000000e+000  5.7499141e-002  7.1776591e-002 
 0.0000000e+000  8.4863111e-002  1.0000000e+000  1.2248614e-001 -9.7611803e-004  0.0000000e+000 -1.2248614e-001  2.4458129e-002 
 0.0000000e+000  1.2472210e-001  1.0000000e+000  3.7952870e-002  1.4972327e-004  0.0000000e+000 -3.7952870e-002  1.1246125e-002 
 0.0000000e+000  1.6856700e-001  1.0000000e+000  6.0921747e-002 -1.7681291e-003  0.0000000e+000 -6.0921747e-002  6.5447087e-003 
 0.0000000e+000  2.1679640e-001  1.0000000e+000  7.5594080e-003  2.2070408e-004  0.0000000e+000 -7.5594080e-003  4.1841734e-003 
 0.0000000e+000  2.6984873e-001  1.0000000e+000  2.3260597e-002 -2.8238678e-003  0.0000000e+000 -2.3260597e-002  2.7231879e-003 
 0.0000000e+000  3.2820630e-001  1.0000000e+000  1.6419203e-003  3.3674081e-004  0.0000000e+000 -1.6419203e-003  1.7167415e-003 
 0.0000000e+000  3.9239961e-001  1.0000000e+000  1.1125620e-002 -4.3696184e-003  0.0000000e+000 -1.1125620e-002  9.5731119e-004 
 0.0000000e+000  4.6301234e-001  1.0000000e+000  5.8141805e-004  6.2360405e-004  0.0000000e+000 -5.8141805e-004  3.2169936e-004 
 0.0000000e+000  5.3838348e-001  1.0000000e+000  6.5188315e-003 -6.8946164e-003  0.0000000e+000 -6.5188315e-003  3.2486516e-004 
 0.0000000e+000  6.1131215e-001  1.0000000e+000  3.2297758e-004  1.8517694e-003  0.0000000e+000 -3.2297758e-004  9.8234531e-004 
 0.0000000e+000  6.7694795e-001  1.0000000e+000  4.1716895e-003 -1.1934900e-002  0.0000000e+000 -4.1716895e-003  1.7744568e-003 
 0.0000000e+000  7.3602021e-001  1.0000000e+000  2.1200810e-004  8.8832825e-003  0.0000000e+000 -2.1200810e-004  2.8324795e-003 
 0.0000000e+000  7.8918511e-001  1.0000000e+000  2.7149227e-003 -2.5503626e-002  0.0000000e+000 -2.7149227e-003  4.3825745e-003 
 0.0000000e+000  8.3703363e-001  1.0000000e+000  1.4653825e-004  4.2241849e-002  0.0000000e+000 -1.4653825e-004  6.9227605e-003 
 0.0000000e+000  8.8009727e-001  1.0000000e+000  1.7104760e-003 -6.6997364e-002  0.0000000e+000 -1.7104760e-003  1.2077702e-002 
 0.0000000e+000  9.1885448e-001  1.0000000e+000  1.0865738e-004 -6.5465271e-002  0.0000000e+000 -1.0865738e-004  2.7006438e-002 
 0.0000000e+000  9.5373595e-001  1.0000000e+000  9.5112470e-004 -1.2769215e-001  0.0000000e+000 -9.5112470e-004  7.9202406e-002 
 0.0000000e+000  9.8512936e-001  1.0000000e+000  9.2938346e-005  7.6009631e-001  0.0000000e+000 -9.2938346e-005 -1.4349560e-001 
 0.0000000e+000  1.0000000e+000  1.0000000e+000  3.0798203e-004 -2.2781499e-001  0.0000000e+000 -3.0798203e-004  7.9340541e-001 
Zone i=1, j=22, k=2
 2.0000000e+001  0.0000000e+000  0.0000000e+000  0.0000000e+000  0.0000000e+000  0.0000000e+000  0.0000000e+000  5.0855312e-002 
 2.0000000e+001  1.5686335e-002  0.0000000e+000  2.8025969e-045  2.1619233e-041  0.0000000e+000  2.1619224e-041  5.0064098e-002 
 2.0000000e+001  4.8627645e-002  0.0000000e+000  0.0000000e+000  0.0000000e+000  0.0000000e+000  0.0000000e+000  4.5940503e-002 
 2.0000000e+001  8.4863111e-002  0.0000000e+000  2.8025969e-045  2.1619233e-041  0.0000000e+000  2.1619026e-041  4.2226918e-002 
 2.0000000e+001  1.2472210e-001  0.0000000e+000  0.0000000e+000  0.0000000e+000  0.0000000e+000  0.0000000e+000  3.8140245e-002 
 2.0000000e+001  1.6856700e-001  0.0000000e+000  2.8025969e-045  2.1619233e-041  0.0000000e+000  2.1618441e-041  3.3643052e-002 
 2.0000000e+001  2.1679640e-001  0.0000000e+000  0.0000000e+000  0.0000000e+000  0.0000000e+000  0.0000000e+000  2.8696293e-002 
 2.0000000e+001  2.6984873e-001  0.0000000e+000  2.8025969e-045  2.1619233e-041  0.0000000e+000  2.1617227e-041  2.3259137e-002 
 2.0000000e+001  3.2820630e-001  0.0000000e+000  0.0000000e+000  0.0000000e+000  0.0000000e+000  0.0000000e+000  1.7290251e-002 
 2.0000000e+001  3.9239961e-001  0.0000000e+000  2.8025969e-045  2.1619233e-041  0.0000000e+000  2.1615018e-041  1.0744722e-002 
 2.0000000e+001  4.6301234e-001  0.0000000e+000  0.0000000e+000  0.0000000e+000  0.0000000e+000  0.0000000e+000  3.5677429e-003 
 2.0000000e+001  5.3838348e-001  0.0000000e+000  2.8025969e-045  2.1619233e-041  0.0000000e+000  2.1611328e-041  3.6839847e-003 
 2.0000000e+001  6.1131215e-001  0.0000000e+000  0.0000000e+000  0.0000000e+000  0.0000000e+000  0.0000000e+000  1.1103758e-002 
 2.0000000e+001  6.7694795e-001  0.0000000e+000  2.8025969e-045  2.1619233e-041  0.0000000e+000  2.1606765e-041  1.7803837e-002 
 2.0000000e+001  7.3602021e-001  0.0000000e+000  0.0000000e+000  0.0000000e+000  0.0000000e+000  0.0000000e+000  2.3852851e-002 
 2.0000000e+001  7.8918511e-001  0.0000000e+000  2.8025969e-045  2.1619233e-041  0.0000000e+000  2.1602311e-041  2.9307419e-002 
 2.0000000e+001  8.3703363e-001  0.0000000e+000  0.0000000e+000  0.0000000e+000  0.0000000e+000  0.0000000e+000  3.4219995e-002 
 2.0000000e+001  8.8009727e-001  0.0000000e+000  2.8025969e-045  2.1619233e-041  0.0000000e+000  2.1598208e-041  3.8641244e-002 
 2.0000000e+001  9.1885448e-001  0.0000000e+000  0.0000000e+000  0.0000000e+000  0.0000000e+000  0.0000000e+000  4.2618774e-002 
 2.0000000e+001  9.5373595e-001  0.0000000e+000  2.8025969e-045  2.1619233e-041  0.0000000e+000  2.1594560e-041  4.6197101e-002 
 2.0000000e+001  9.8512936e-001  0.0000000e+000  0.0000000e+000  0.0000000e+000  0.0000000e+000  0.0000000e+000  5.0500732e-002 
 2.0000000e+001  1.0000000e+000  0.0000000e+000  2.8025969e-045  2.1619233e-041  0.0000000e+000  2.1592119e-041  5.0852049e-002 
 2.0000000e+001  0.0000000e+000  1.0000000e+000  5.0855316e-002  3.4241682e-006  0.0000000e+000  3.4241682e-006  5.0855312e-002 
 2.0000000e+001  1.5686335e-002  1.0000000e+000 -2.8573774e-007  3.6839831e-003  0.0000000e+000  3.6839822e-003  5.0064098e-002 
 2.0000000e+001  4.8627645e-002  1.0000000e+000 -3.6710540e-007  2.1149947e-006  0.0000000e+000  2.1158810e-006  4.5940503e-002 
 2.0000000e+001  8.4863111e-002  1.0000000e+000 -5.0064098e-002  1.1103758e-002  0.0000000e+000  1.1316086e-002  4.2226918e-002 
 2.0000000e+001  1.2472210e-001  1.0000000e+000 -1.0421227e-006  4.3379006e-007  0.0000000e+000  4.4028029e-007  3.8140245e-002 
 2.0000000e+001  1.6856700e-001  1.0000000e+000 -4.5940503e-002  1.7803837e-002  0.0000000e+000  1.8190393e-002  3.3643052e-002 
 2.0000000e+001  2.1679640e-001  1.0000000e+000 -1.6032103e-006 -9.4050409e-007  0.0000000e+000 -9.2307135e-007  2.8696293e-002 
 2.0000000e+001  2.6984873e-001  1.0000000e+000 -4.2226918e-002  2.3852849e-002  0.0000000e+000  2.4420371e-002  2.3259137e-002 
 2.0000000e+001  3.2820630e-001  1.0000000e+000 -1.9859121e-006 -1.7598906e-006  0.0000000e+000 -1.7270686e-006  1.7290251e-002 
 2.0000000e+001  3.9239961e-001  1.0000000e+000 -3.8140245e-002  2.9307419e-002  0.0000000e+000  3.0049947e-002  1.0744722e-002 
 2.0000000e+001  4.6301234e-001  1.0000000e+000 -2.0729108e-006 -2.0486334e-006  0.0000000e+000 -2.0001083e-006  3.5677429e-003 
 2.0000000e+001  5.3838348e-001  1.0000000e+000 -3.3643052e-002  3.4219991e-002  0.0000000e+000  3.5112915e-002  3.6839847e-003 
 2.0000000e+001  6.1131215e-001  1.0000000e+000 -1.7388176e-006 -1.9259667e-006  0.0000000e+000 -1.8719444e-006  1.1103758e-002 
 2.0000000e+001  6.7694795e-001  1.0000000e+000 -2.8696293e-002  3.8641244e-002  0.0000000e+000  3.9589868e-002  1.7803837e-002 
 2.0000000e+001  7.3602021e-001  1.0000000e+000 -8.7007299e-007 -1.5365216e-006  0.0000000e+000 -1.5034843e-006  2.3852851e-002 
 2.0000000e+001  7.8918511e-001  1.0000000e+000 -2.3259135e-002  4.2618778e-002  0.0000000e+000  4.3502711e-002  2.9307419e-002 
 2.0000000e+001  8.3703363e-001  1.0000000e+000  5.1361275e-007 -9.8579278e-007  0.0000000e+000 -1.0064073e-006  3.4219995e-002 
 2.0000000e+001  8.8009727e-001  1.0000000e+000 -1.7290251e-002  4.6197101e-002  0.0000000e+000  4.6912557e-002  3.8641244e-002 
 2.0000000e+001  9.1885448e-001  1.0000000e+000  2.1535748e-006 -3.4671729e-007  0.0000000e+000 -4.4518879e-007  4.2618774e-002 
 2.0000000e+001  9.5373595e-001  1.0000000e+000 -1.0744722e-002  5.0500732e-002  0.0000000e+000  5.0955209e-002  4.6197101e-002 
 2.0000000e+001  9.8512936e-001  1.0000000e+000  3.4034813e-006  5.0852057e-002  0.0000000e+000  5.0790313e-002  5.0500732e-002 
 2.0000000e+001  1.0000000e+000  1.0000000e+000 -3.5677413e-003 -2.3762304e-006  0.0000000e+000  1.7579123e-004  5.0852049e-002 
Zone i=62, j=1, k=2
 0.0000000e+000  0.0000000e+000  0.0000000e+000  0.0000000e+000  1.0865738e-004  0.0000000e+000  0.0000000e+000  7.5025791e-001 
 1.2291715e-002  0.0000000e+000  0.0000000e+000  0.0000000e+000  9.5112470e-004  0.0000000e+000  9.5112470e-004  7.0995098e-001 
 3.7736509e-002  0.0000000e+000  0.0000000e+000  0.0000000e+000  9.2938346e-005  0.0000000e+000  9.2938346e-005  6.2651259e-001 
 6.4963534e-002  0.0000000e+000  0.0000000e+000  0.0000000e+000  3.0798203e-004  0.0000000e+000  3.0798203e-004  5.1533532e-001 
 9.4095588e-002  0.0000000e+000  0.0000000e+000  0.0000000e+000 -7.2905139e-029  0.0000000e+000 -7.2905139e-029  4.0505809e-001 
 1.2526625e-001  0.0000000e+000  0.0000000e+000  0.0000000e+000  0.0000000e+000  0.0000000e+000  0.0000000e+000  3.1392133e-001 
 1.5861896e-001  0.0000000e+000  0.0000000e+000  0.0000000e+000  0.0000000e+000  0.0000000e+000  0.0000000e+000  2.4626713e-001 
 1.9430619e-001  0.0000000e+000  0.0000000e+000  0.0000000e+000  0.0000000e+000  0.0000000e+000  0.0000000e+000  2.0025553e-001 
 2.3249130e-001  0.0000000e+000  0.0000000e+000  0.0000000e+000  0.0000000e+000  0.0000000e+000  0.0000000e+000  1.7067866e-001 
 2.7334976e-001  0.0000000e+000  0.0000000e+000  0.0000000e+000  0.0000000e+000  0.0000000e+000  0.0000000e+000  1.5178820e-001 
 3.1706923e-001  0.0000000e+000  0.0000000e+000  0.0000000e+000  0.0000000e+000  0.0000000e+000  0.0000000e+000  1.3907538e-001 
 3.6384889e-001  0.0000000e+000  0.0000000e+000  0.0000000e+000  0.0000000e+000  0.0000000e+000  0.0000000e+000  1.2964399e-001 
 4.1390228e-001  0.0000000e+000  0.0000000e+000  0.0000000e+000  0.0000000e+000  0.0000000e+000  0.0000000e+000  1.2192335e-001 
 4.6745992e-001  0.0000000e+000  0.0000000e+000  0.0000000e+000  0.0000000e+000  0.0000000e+000  0.0000000e+000  1.1522245e-001 
 5.2476656e-001  0.0000000e+000  0.0000000e+000  0.0000000e+000  0.0000000e+000  0.0000000e+000  0.0000000e+000  1.0931382e-001 
 5.8608472e-001  0.0000000e+000  0.0000000e+000  0.0000000e+000  0.0000000e+000  0.0000000e+000  0.0000000e+000  1.0410616e-001 
 6.5169525e-001  0.0000000e+000  0.0000000e+000  3.9254573e-034 -5.9029581e+020  0.0000000e+000 -5.9029581e+020  9.9532478e-002 
 7.2189790e-001  0.0000000e+000  0.0000000e+000  0.0000000e+000  0.0000000e+000  0.0000000e+000  0.0000000e+000  9.5515162e-002 
 7.9701531e-001  0.0000000e+000  0.0000000e+000  8.1805128e-039  0.0000000e+000  0.0000000e+000  0.0000000e+000  9.1960803e-002 
 8.7739104e-001  0.0000000e+000  0.0000000e+000  0.0000000e+000  7.0625443e-042  0.0000000e+000  7.0625443e-042  8.8786408e-002 
 9.6339333e-001  0.0000000e+000  0.0000000e+000  0.0000000e+000  1.4012985e-045  0.0000000e+000  1.4012985e-045  8.5925527e-002 
 1.0554160e+000  0.0000000e+000  0.0000000e+000  0.0000000e+000  2.2958874e-041  0.0000000e+000  2.2958874e-041  8.3333790e-002 
 1.1538795e+000  0.0000000e+000  0.0000000e+000  0.0000000e+000  0.0000000e+000  0.0000000e+000  0.0000000e+000  8.0965072e-002 
 1.2592361e+000  0.0000000e+000  0.0000000e+000  0.0000000e+000  0.0000000e+000  0.0000000e+000  0.0000000e+000  7.8782544e-002 
 1.3719671e+000  0.0000000e+000  0.0000000e+000  0.0000000e+000  2.9387373e-039  0.0000000e+000  2.9387373e-039  7.6762065e-002 
 1.4925885e+000  0.0000000e+000  0.0000000e+000  0.0000000e+000  2.2958874e-041  0.0000000e+000  2.2958874e-041  7.4883349e-002 
 1.6216545e+000  0.0000000e+000  0.0000000e+000  0.0000000e+000  0.0000000e+000  0.0000000e+000  0.0000000e+000  7.3129132e-002 
 1.7597550e+000  0.0000000e+000  0.0000000e+000  0.0000000e+000  0.0000000e+000  0.0000000e+000  0.0000000e+000  7.1486637e-002 
 1.9075224e+000  0.0000000e+000  0.0000000e+000  0.0000000e+000  1.5626510e-039  0.0000000e+000  1.5626510e-039  6.9945283e-002 
 2.0656340e+000  0.0000000e+000  0.0000000e+000  0.0000000e+000  1.9292643e-039  0.0000000e+000  1.9292643e-039  6.8496130e-002 
 2.2348135e+000  0.0000000e+000  0.0000000e+000  0.0000000e+000  4.4841551e-044  0.0000000e+000  4.4841551e-044  6.7134157e-002 
 2.4158354e+000  0.0000000e+000  0.0000000e+000  0.0000000e+000  0.0000000e+000  0.0000000e+000  0.0000000e+000  6.5850802e-002 
 2.6095285e+000  0.0000000e+000  0.0000000e+000  0.0000000e+000  5.6051939e-044  0.0000000e+000  5.6051939e-044  6.4639352e-002 
 2.8167806e+000  0.0000000e+000  0.0000000e+000  0.0000000e+000  0.0000000e+000  0.0000000e+000  0.0000000e+000  6.3496836e-002 
 3.0385399e+000  0.0000000e+000  0.0000000e+000  0.0000000e+000  1.4012985e-045  0.0000000e+000  1.4012985e-045  6.2419619e-002 
 3.2758224e+000  0.0000000e+000  0.0000000e+000  0.0000000e+000  0.0000000e+000  0.0000000e+000  0.0000000e+000  6.1403651e-002 
 3.5297146e+000  0.0000000e+000  0.0000000e+000  0.0000000e+000  5.6051939e-045  0.0000000e+000  5.6051939e-045  6.0446043e-002 
 3.8013785e+000  0.0000000e+000  0.0000000e+000  0.0000000e+000  0.0000000e+000  0.0000000e+000  0.0000000e+000  5.9543803e-002 
 4.0920601e+000  0.0000000e+000  0.0000000e+000  0.0000000e+000  0.0000000e+000  0.0000000e+000  0.0000000e+000  5.8694970e-002 
 4.4030900e+000  0.0000000e+000  0.0000000e+000  0.0000000e+000  3.9255009e-034  0.0000000e+000  3.9255009e-034  5.7896845e-002 
 4.7358913e+000  0.0000000e+000  0.0000000e+000  0.0000000e+000  1.1917795e-034  0.0000000e+000  1.1917795e-034  5.7148017e-002 
 5.0919890e+000  0.0000000e+000  0.0000000e+000  0.0000000e+000  0.0000000e+000  0.0000000e+000  0.0000000e+000  5.6446753e-002 
 5.4730139e+000  0.0000000e+000  0.0000000e+000  0.0000000e+000  4.4841551e-044  0.0000000e+000  4.4841551e-044  5.5792663e-002 
 5.8807087e+000  0.0000000e+000  0.0000000e+000  0.0000000e+000  2.8025969e-045  0.0000000e+000  2.8025969e-045  5.5184230e-002 
 6.3169422e+000  0.0000000e+000  0.0000000e+000  0.0000000e+000  2.8025969e-045  0.0000000e+000  2.8025969e-045  5.4621723e-002 
 6.7837143e+000  0.0000000e+000  0.0000000e+000  0.0000000e+000 -1.0  0.0000000e+000 -1.0  5.4103822e-002 
 7.2831593e+000  0.0000000e+000  0.0000000e+000  0.0000000e+000  0.0000000e+000  0.0000000e+000  0.0000000e+000  5.3631183e-002 
 7.8175659e+000  0.0000000e+000  0.0000000e+000  0.0000000e+000  0.0000000e+000  0.0000000e+000  0.0000000e+000  5.3202096e-002 
 8.3893795e+000  0.0000000e+000  0.0000000e+000  0.0000000e+000  0.0000000e+000  0.0000000e+000  0.0000000e+000  5.2817274e-002 
 9.0012217e+000  0.0000000e+000  0.0000000e+000  0.0000000e+000  7.6931286e-043  0.0000000e+000  7.6931286e-043  5.2474320e-002 
 9.6558924e+000  0.0000000e+000  0.0000000e+000  0.0000000e+000 -1.4582024e-039  0.0000000e+000 -1.4582024e-039  5.2173559e-002 
 1.0356388e+001  0.0000000e+000  0.0000000e+000  0.0000000e+000  7.6931286e-043  0.0000000e+000  7.6931286e-043  5.1911537e-002 
 1.1105920e+001  0.0000000e+000  0.0000000e+000  0.0000000e+000 -1.7635698e-037  0.0000000e+000 -1.7635698e-037  5.1688008e-002 
 1.1907920e+001  0.0000000e+000  0.0000000e+000  0.0000000e+000  0.0000000e+000  0.0000000e+000  0.0000000e+000  5.1498521e-002 
 1.2766060e+001  0.0000000e+000  0.0000000e+000  0.0000000e+000  0.0000000e+000  0.0000000e+000  0.0000000e+000  5.1341936e-002 
 1.3684270e+001  0.0000000e+000  0.0000000e+000  0.0000000e+000  4.5907939e-041  0.0000000e+000  4.5907939e-041  5.1213715e-002 
 1.4666756e+001  0.0000000e+000  0.0000000e+000  0.0000000e+000  1.4012985e-045  0.0000000e+000  1.4012985e-045  5.1110998e-002 
 1.5718015e+001  0.0000000e+000  0.0000000e+000  0.0000000e+000  0.0000000e+000  0.0000000e+000  0.0000000e+000  5.1031269e-002 
 1.6842865e+001  0.0000000e+000  0.0000000e+000  0.0000000e+000  0.0000000e+000  0.0000000e+000  0.0000000e+000  5.0967209e-002 
 1.8046452e+001  0.0000000e+000  0.0000000e+000  0.0000000e+000  1.7936620e-043  0.0000000e+000  1.7936620e-043  5.0925419e-002 
 1.9334295e+001  0.0000000e+000  0.0000000e+000  0.0000000e+000 -1.4591889e-039  0.0000000e+000 -1.4591889e-039  5.0879203e-002 
 2.0000000e+001  0.0000000e+000  0.0000000e+000  0.0000000e+000  7.6931286e-043  0.0000000e+000  7.6931286e-043  5.0855312e-002 
 0.0000000e+000  0.0000000e+000  1.0000000e+000  7.2166234e-001  6.5850779e-002  0.0000000e+000  0.0000000e+000  7.5025791e-001 
 1.2291715e-002  0.0000000e+000  1.0000000e+000  2.0567897e-001 -6.1011753e-005  0.0000000e+000 -6.1011753e-005  7.0995098e-001 
 3.7736509e-002  0.0000000e+000  1.0000000e+000  6.8069428e-001  6.4639330e-002  0.0000000e+000  6.4639330e-002  6.2651259e-001 
 6.4963534e-002  0.0000000e+000  1.0000000e+000  2.0170696e-001 -5.2795305e-005  0.0000000e+000 -5.2795305e-005  5.1533532e-001 
 9.4095588e-002  0.0000000e+000  1.0000000e+000  5.9588730e-001  6.3496821e-002  0.0000000e+000  6.3496821e-002  4.0505809e-001 
 1.2526625e-001  0.0000000e+000  1.0000000e+000  1.9348460e-001 -4.5696728e-005  0.0000000e+000 -4.5696728e-005  3.1392133e-001 
 1.5861896e-001  0.0000000e+000  1.0000000e+000  4.9316829e-001  6.2419608e-002  0.0000000e+000  6.2419608e-002  2.4626713e-001 
 1.9430619e-001  0.0000000e+000  1.0000000e+000  1.4951749e-001 -3.9621238e-005  0.0000000e+000 -3.9621238e-005  2.0025553e-001 
 2.3249130e-001  0.0000000e+000  1.0000000e+000  3.9285386e-001  6.1403640e-002  0.0000000e+000  6.1403640e-002  1.7067866e-001 
 2.7334976e-001  0.0000000e+000  1.0000000e+000  9.8680824e-002 -3.4400429e-005  0.0000000e+000 -3.4400429e-005  1.5178820e-001 
 3.1706923e-001  0.0000000e+000  1.0000000e+000  3.0939424e-001  6.0446035e-002  0.0000000e+000  6.0446035e-002  1.3907538e-001 
 3.6384889e-001  0.0000000e+000  1.0000000e+000  5.3120639e-002 -2.9992010e-005  0.0000000e+000 -2.9992010e-005  1.2964399e-001 
 4.1390228e-001  0.0000000e+000  1.0000000e+000  2.4536218e-001  5.9543796e-002  0.0000000e+000  5.9543796e-002  1.2192335e-001 
 4.6745992e-001  0.0000000e+000  1.0000000e+000  2.1092746e-002 -2.6021455e-005  0.0000000e+000 -2.6021455e-005  1.1522245e-001 
 5.2476656e-001  0.0000000e+000  1.0000000e+000  2.0023870e-001  5.8694966e-002  0.0000000e+000  5.8694966e-002  1.0931382e-001 
 5.8608472e-001  0.0000000e+000  1.0000000e+000  2.5959520e-003 -2.2551672e-005  0.0000000e+000 -2.2551672e-005  1.0410616e-001 
 6.5169525e-001  0.0000000e+000  1.0000000e+000  1.7058179e-001  5.7896841e-002  0.0000000e+000  5.7896841e-002  9.9532478e-002 
 7.2189790e-001  0.0000000e+000  1.0000000e+000 -5.7497113e-003 -1.9517995e-005  0.0000000e+000 -1.9517995e-005  9.5515162e-002 
 7.9701531e-001  0.0000000e+000  1.0000000e+000  1.5159146e-001  5.7148013e-002  0.0000000e+000  5.7148013e-002  9.1960803e-002 
 8.7739104e-001  0.0000000e+000  1.0000000e+000 -7.7256951e-003 -1.7041648e-005  0.0000000e+000 -1.7041648e-005  8.8786408e-002 
 9.6339333e-001  0.0000000e+000  1.0000000e+000  1.3891026e-001  5.6446753e-002  0.0000000e+000  5.6446753e-002  8.5925527e-002 
 1.0554160e+000  0.0000000e+000  1.0000000e+000 -6.7748940e-003 -1.4626815e-005  0.0000000e+000 -1.4626815e-005  8.3333790e-002 
 1.1538795e+000  0.0000000e+000  1.0000000e+000  1.2954265e-001  5.5792663e-002  0.0000000e+000  5.5792663e-002  8.0965072e-002 
 1.2592361e+000  0.0000000e+000  1.0000000e+000 -5.1252185e-003 -1.2618676e-005  0.0000000e+000 -1.2618676e-005  7.8782544e-002 
 1.3719671e+000  0.0000000e+000  1.0000000e+000  1.2186955e-001  5.5184226e-002  0.0000000e+000  5.5184226e-002  7.6762065e-002 
 1.4925885e+000  0.0000000e+000  1.0000000e+000 -3.6216544e-003 -1.0805440e-005  0.0000000e+000 -1.0805440e-005  7.4883349e-002 
 1.6216545e+000  0.0000000e+000  1.0000000e+000  1.1519425e-001  5.4621726e-002  0.0000000e+000  5.4621726e-002  7.3129132e-002 
 1.7597550e+000  0.0000000e+000  1.0000000e+000 -2.5489440e-003 -9.3679882e-006  0.0000000e+000 -9.3679882e-006  7.1486637e-002 
 1.9075224e+000  0.0000000e+000  1.0000000e+000  1.0929821e-001  5.4103818e-002  0.0000000e+000  5.4103818e-002  6.9945283e-002 
 2.0656340e+000  0.0000000e+000  1.0000000e+000 -1.8475141e-003 -7.8717276e-006  0.0000000e+000 -7.8717276e-006  6.8496130e-002 
 2.2348135e+000  0.0000000e+000  1.0000000e+000  1.0409701e-001  5.3631183e-002  0.0000000e+000  5.3631183e-002  6.7134157e-002 
 2.4158354e+000  0.0000000e+000  1.0000000e+000 -1.3800288e-003 -6.5985178e-006  0.0000000e+000 -6.5985178e-006  6.5850802e-002 
 2.6095285e+000  0.0000000e+000  1.0000000e+000  9.9526815e-002  5.3202096e-002  0.0000000e+000  5.3202096e-002  6.4639352e-002 
 2.8167806e+000  0.0000000e+000  1.0000000e+000 -1.0614519e-003 -5.5777100e-006  0.0000000e+000 -5.5777100e-006  6.3496836e-002 
 3.0385399e+000  0.0000000e+000  1.0000000e+000  9.5511571e-002  5.2817274e-002  0.0000000e+000  5.2817274e-002  6.2419619e-002 
 3.2758224e+000  0.0000000e+000  1.0000000e+000 -8.2792278e-004 -4.5274060e-006  0.0000000e+000 -4.5274060e-006  6.1403651e-002 
 3.5297146e+000  0.0000000e+000  1.0000000e+000  9.1958493e-002  5.2474320e-002  0.0000000e+000  5.2474320e-002  6.0446043e-002 
 3.8013785e+000  0.0000000e+000  1.0000000e+000 -6.5181934e-004 -3.6828669e-006  0.0000000e+000 -3.6828669e-006  5.9543803e-002 
 4.0920601e+000  0.0000000e+000  1.0000000e+000  8.8784903e-002  5.2173559e-002  0.0000000e+000  5.2173559e-002  5.8694970e-002 
 4.4030900e+000  0.0000000e+000  1.0000000e+000 -5.1772274e-004 -3.0363358e-006  0.0000000e+000 -3.0363358e-006  5.7896845e-002 
 4.7358913e+000  0.0000000e+000  1.0000000e+000  8.5924529e-002  5.1911537e-002  0.0000000e+000  5.1911537e-002  5.7148017e-002 
 5.0919890e+000  0.0000000e+000  1.0000000e+000 -4.1484029e-004 -2.4316257e-006  0.0000000e+000 -2.4316257e-006  5.6446753e-002 
 5.4730139e+000  0.0000000e+000  1.0000000e+000  8.3333112e-002  5.1688004e-002  0.0000000e+000  5.1688004e-002  5.5792663e-002 
 5.8807087e+000  0.0000000e+000  1.0000000e+000 -3.3638789e-004 -1.9060815e-006  0.0000000e+000 -1.9060815e-006  5.5184230e-002 
 6.3169422e+000  0.0000000e+000  1.0000000e+000  8.0964610e-002  5.1498521e-002  0.0000000e+000  5.1498521e-002  5.4621723e-002 
 6.7837143e+000  0.0000000e+000  1.0000000e+000 -2.7308764e-004 -1.5063597e-006  0.0000000e+000 -1.5063597e-006  5.4103822e-002 
 7.2831593e+000  0.0000000e+000  1.0000000e+000  7.8782223e-002  5.1341936e-002  0.0000000e+000  5.1341936e-002  5.3631183e-002 
 7.8175659e+000  0.0000000e+000  1.0000000e+000 -2.2498178e-004 -1.1777257e-006  0.0000000e+000 -1.1777257e-006  5.3202096e-002 
 8.3893795e+000  0.0000000e+000  1.0000000e+000  7.6761834e-002  5.1213719e-002  0.0000000e+000  5.1213719e-002  5.2817274e-002 
 9.0012217e+000  0.0000000e+000  1.0000000e+000 -1.8696485e-004 -8.5245881e-007  0.0000000e+000 -8.5245881e-007  5.2474320e-002 
 9.6558924e+000  0.0000000e+000  1.0000000e+000  7.4883185e-002  5.1110998e-002  0.0000000e+000  5.1110998e-002  5.2173559e-002 
 1.0356388e+001  0.0000000e+000  1.0000000e+000 -1.5667450e-004 -6.5207422e-007  0.0000000e+000 -6.5207422e-007  5.1911537e-002 
 1.1105920e+001  0.0000000e+000  1.0000000e+000  7.3129013e-002  5.1031269e-002  0.0000000e+000  5.1031269e-002  5.1688008e-002 
 1.1907920e+001  0.0000000e+000  1.0000000e+000 -1.3221303e-004 -5.0111078e-007  0.0000000e+000 -5.0111078e-007  5.1498521e-002 
 1.2766060e+001  0.0000000e+000  1.0000000e+000  7.1486548e-002  5.0967209e-002  0.0000000e+000  5.0967209e-002  5.1341936e-002 
 1.3684270e+001  0.0000000e+000  1.0000000e+000 -1.1232135e-004 -3.1281988e-007  0.0000000e+000 -3.1281988e-007  5.1213715e-002 
 1.4666756e+001  0.0000000e+000  1.0000000e+000  6.9945216e-002  5.0925422e-002  0.0000000e+000  5.0925422e-002  5.1110998e-002 
 1.5718015e+001  0.0000000e+000  1.0000000e+000 -9.5903102e-005 -2.9429910e-007  0.0000000e+000 -2.9429910e-007  5.1031269e-002 
 1.6842865e+001  0.0000000e+000  1.0000000e+000  6.8496078e-002  5.0879207e-002  0.0000000e+000  5.0879207e-002  5.0967209e-002 
 1.8046452e+001  0.0000000e+000  1.0000000e+000 -8.2076229e-005 -2.8865517e-007  0.0000000e+000 -2.8865517e-007  5.0925419e-002 
 1.9334295e+001  0.0000000e+000  1.0000000e+000  6.7134120e-002  5.0855316e-002  0.0000000e+000  5.0855316e-002  5.0879203e-002 
 2.0000000e+001  0.0000000e+000  1.0000000e+000 -7.0792135e-005 -2.8573774e-007  0.0000000e+000 -2.8573774e-007  5.0855312e-002 
Zone i=62, j=1, k=2
 0.0000000e+000  1.0000000e+000  0.0000000e+000  0.0000000e+000  0.0000000e+000  0.0000000e+000  0.0000000e+000  7.9340541e-001 
 1.2291715e-002  1.0000000e+000  0.0000000e+000  0.0000000e+000  0.0000000e+000  0.0000000e+000  0.0000000e+000  7.4569201e-001 
 3.7736509e-002  1.0000000e+000  0.0000000e+000  0.0000000e+000  0.0000000e+000  0.0000000e+000  0.0000000e+000  6.4692158e-001 
 6.4963534e-002  1.0000000e+000  0.0000000e+000  0.0000000e+000  0.0000000e+000  0.0000000e+000  0.0000000e+000  5.2011651e-001 
 9.4095588e-002  1.0000000e+000  0.0000000e+000  0.0000000e+000  0.0000000e+000  0.0000000e+000  0.0000000e+000  4.0029863e-001 
 1.2526625e-001  1.0000000e+000  0.0000000e+000  0.0000000e+000  1.1811432e-034  0.0000000e+000  1.4681002e-035  3.0593130e-001 
 1.5861896e-001  1.0000000e+000  0.0000000e+000  0.0000000e+000  0.0000000e+000  0.0000000e+000  0.0000000e+000  2.3950596e-001 
 1.9430619e-001  1.0000000e+000  0.0000000e+000  0.0000000e+000  0.0000000e+000  0.0000000e+000  0.0000000e+000  1.9641790e-001 
 2.3249130e-001  1.0000000e+000  0.0000000e+000  0.0000000e+000  0.0000000e+000  0.0000000e+000  0.0000000e+000  1.6940027e-001 
 2.7334976e-001  1.0000000e+000  0.0000000e+000  0.0000000e+000  0.0000000e+000  0.0000000e+000  0.0000000e+000  1.5208180e-001 
 3.1706923e-001  1.0000000e+000  0.0000000e+000  0.0000000e+000  0.0000000e+000  0.0000000e+000  0.0000000e+000  1.4001158e-001 
 3.6384889e-001  1.0000000e+000  0.0000000e+000  0.0000000e+000  0.0000000e+000  0.0000000e+000  0.0000000e+000  1.3062131e-001 
 4.1390228e-001  1.0000000e+000  0.0000000e+000  0.0000000e+000  0.0000000e+000  0.0000000e+000  0.0000000e+000  1.2269515e-001 
 4.6745992e-001  1.0000000e+000  0.0000000e+000  0.0000000e+000  0.0000000e+000  0.0000000e+000  0.0000000e+000  1.1577450e-001 
 5.2476656e-001  1.0000000e+000  0.0000000e+000  0.0000000e+000  0.0000000e+000  0.0000000e+000  0.0000000e+000  1.0971524e-001 
 5.8608472e-001  1.0000000e+000  0.0000000e+000  0.0000000e+000  0.0000000e+000  0.0000000e+000  0.0000000e+000  1.0442422e-001 
 6.5169525e-001  1.0000000e+000  0.0000000e+000  0.0000000e+000  0.0000000e+000  0.0000000e+000  0.0000000e+000  9.9804476e-002 
 7.2189790e-001  1.0000000e+000  0.0000000e+000  0.0000000e+000  0.0000000e+000  0.0000000e+000  0.0000000e+000  9.5751800e-002 
 7.9701531e-001  1.0000000e+000  0.0000000e+000  0.0000000e+000  0.0000000e+000  0.0000000e+000  0.0000000e+000  9.2164025e-002 