Variables = "x","y", "Velocity_x", "Velocity_y", "Velocity_whole value", "Pressure", "Absolute pressure", "Total pressure"
Zone i=62, j=22
 0.0000000e+000  0.0000000e+000  0.0000000e+000  0.0000000e+000  0.0000000e+000  2.0072725e+000  2.0072725e+000  2.0072725e+000 
 1.2291715e-002  0.0000000e+000  0.0000000e+000  0.0000000e+000  0.0000000e+000  1.9017611e+000  1.9017611e+000  1.9017611e+000 
 3.7736509e-002  0.0000000e+000  0.0000000e+000  0.0000000e+000  0.0000000e+000  1.6833441e+000  1.6833441e+000  1.6833441e+000 
 6.4963534e-002  0.0000000e+000  0.0000000e+000  0.0000000e+000  0.0000000e+000  1.5368481e+000  1.5368481e+000  1.5368481e+000 
 9.4095588e-002  0.0000000e+000  0.0000000e+000  0.0000000e+000  0.0000000e+000  1.4327663e+000  1.4327663e+000  1.4327663e+000 
 1.2526625e-001  0.0000000e+000  0.0000000e+000  0.0000000e+000  0.0000000e+000  1.3528901e+000  1.3528901e+000  1.3528901e+000 
 1.5861896e-001  0.0000000e+000  0.0000000e+000  0.0000000e+000  0.0000000e+000  1.2988501e+000  1.2988501e+000  1.2988501e+000 
 1.9430619e-001  0.0000000e+000  0.0000000e+000  0.0000000e+000  0.0000000e+000  1.2671237e+000  1.2671237e+000  1.2671237e+000 
 2.3249130e-001  0.0000000e+000  0.0000000e+000  0.0000000e+000  0.0000000e+000  1.2502456e+000  1.2502456e+000  1.2502456e+000 
 2.7334976e-001  0.0000000e+000  0.0000000e+000  0.0000000e+000  0.0000000e+000  1.2411275e+000  1.2411275e+000  1.2411275e+000 
 3.1706923e-001  0.0000000e+000  0.0000000e+000  0.0000000e+000  0.0000000e+000  1.2345744e+000  1.2345744e+000  1.2345744e+000 
 3.6384889e-001  0.0000000e+000  0.0000000e+000  0.0000000e+000  0.0000000e+000  1.2280771e+000  1.2280771e+000  1.2280771e+000 
 4.1390228e-001  0.0000000e+000  0.0000000e+000  0.0000000e+000  0.0000000e+000  1.2208533e+000  1.2208533e+000  1.2208533e+000 
 4.6745992e-001  0.0000000e+000  0.0000000e+000  0.0000000e+000  0.0000000e+000  1.2129625e+000  1.2129625e+000  1.2129625e+000 
 5.2476656e-001  0.0000000e+000  0.0000000e+000  0.0000000e+000  0.0000000e+000  1.2046303e+000  1.2046303e+000  1.2046303e+000 
 5.8608472e-001  0.0000000e+000  0.0000000e+000  0.0000000e+000  0.0000000e+000  1.1959779e+000  1.1959779e+000  1.1959779e+000 
 6.5169525e-001  0.0000000e+000  0.0000000e+000  0.0000000e+000  0.0000000e+000  1.1870452e+000  1.1870452e+000  1.1870452e+000 
 7.2189790e-001  0.0000000e+000  0.0000000e+000  0.0000000e+000  0.0000000e+000  1.1777929e+000  1.1777929e+000  1.1777929e+000 
 7.9701531e-001  0.0000000e+000  0.0000000e+000  0.0000000e+000  0.0000000e+000  1.1681741e+000  1.1681741e+000  1.1681741e+000 
 8.7739104e-001  0.0000000e+000  0.0000000e+000  0.0000000e+000  0.0000000e+000  1.1581579e+000  1.1581579e+000  1.1581579e+000 
 9.6339333e-001  0.0000000e+000  0.0000000e+000  0.0000000e+000  0.0000000e+000  1.1477244e+000  1.1477244e+000  1.1477244e+000 
 1.0554160e+000  0.0000000e+000  0.0000000e+000  0.0000000e+000  0.0000000e+000  1.1368603e+000  1.1368603e+000  1.1368603e+000 
 1.1538795e+000  0.0000000e+000  0.0000000e+000  0.0000000e+000  0.0000000e+000  1.1255424e+000  1.1255424e+000  1.1255424e+000 
 1.2592361e+000  0.0000000e+000  0.0000000e+000  0.0000000e+000  0.0000000e+000  1.1137708e+000  1.1137708e+000  1.1137708e+000 
 1.3719671e+000  0.0000000e+000  0.0000000e+000  0.0000000e+000  0.0000000e+000  1.1015357e+000  1.1015357e+000  1.1015357e+000 
 1.4925885e+000  0.0000000e+000  0.0000000e+000  0.0000000e+000  0.0000000e+000  1.0888274e+000  1.0888274e+000  1.0888274e+000 
 1.6216545e+000  0.0000000e+000  0.0000000e+000  0.0000000e+000  0.0000000e+000  1.0756335e+000  1.0756335e+000  1.0756335e+000 
 1.7597550e+000  0.0000000e+000  0.0000000e+000  0.0000000e+000  0.0000000e+000  1.0619426e+000  1.0619426e+000  1.0619426e+000 
 1.9075224e+000  0.0000000e+000  0.0000000e+000  0.0000000e+000  0.0000000e+000  1.0477375e+000  1.0477375e+000  1.0477375e+000 
 2.0656340e+000  0.0000000e+000  0.0000000e+000  0.0000000e+000  0.0000000e+000  1.0330011e+000  1.0330011e+000  1.0330011e+000 
 2.2348135e+000  0.0000000e+000  0.0000000e+000  0.0000000e+000  0.0000000e+000  1.0177118e+000  1.0177118e+000  1.0177118e+000 
 2.4158354e+000  0.0000000e+000  0.0000000e+000  0.0000000e+000  0.0000000e+000  1.0018414e+000  1.0018414e+000  1.0018414e+000 
 2.6095285e+000  0.0000000e+000  0.0000000e+000  0.0000000e+000  0.0000000e+000  9.8537034e-001  9.8537034e-001  9.8537034e-001 
 2.8167806e+000  0.0000000e+000  0.0000000e+000  0.0000000e+000  0.0000000e+000  9.6826887e-001  9.6826887e-001  9.6826887e-001 
 3.0385399e+000  0.0000000e+000  0.0000000e+000  0.0000000e+000  0.0000000e+000  9.5050532e-001  9.5050532e-001  9.5050532e-001 
 3.2758224e+000  0.0000000e+000  0.0000000e+000  0.0000000e+000  0.0000000e+000  9.3204564e-001  9.3204564e-001  9.3204564e-001 
 3.5297146e+000  0.0000000e+000  0.0000000e+000  0.0000000e+000  0.0000000e+000  9.1285402e-001  9.1285402e-001  9.1285402e-001 
 3.8013785e+000  0.0000000e+000  0.0000000e+000  0.0000000e+000  0.0000000e+000  8.9289099e-001  8.9289099e-001  8.9289099e-001 
 4.0920601e+000  0.0000000e+000  0.0000000e+000  0.0000000e+000  0.0000000e+000  8.7211460e-001  8.7211460e-001  8.7211460e-001 
 4.4030900e+000  0.0000000e+000  0.0000000e+000  0.0000000e+000  0.0000000e+000  8.5047823e-001  8.5047823e-001  8.5047823e-001 
 4.7358913e+000  0.0000000e+000  0.0000000e+000  0.0000000e+000  0.0000000e+000  8.2793367e-001  8.2793367e-001  8.2793367e-001 
 5.0919890e+000  0.0000000e+000  0.0000000e+000  0.0000000e+000  0.0000000e+000  8.0442524e-001  8.0442524e-001  8.0442524e-001 
 5.4730139e+000  0.0000000e+000  0.0000000e+000  0.0000000e+000  0.0000000e+000  7.7989495e-001  7.7989495e-001  7.7989495e-001 
 5.8807087e+000  0.0000000e+000  0.0000000e+000  0.0000000e+000  0.0000000e+000  7.5427455e-001  7.5427455e-001  7.5427455e-001 
 6.3169422e+000  0.0000000e+000  0.0000000e+000  0.0000000e+000  0.0000000e+000  7.2749275e-001  7.2749275e-001  7.2749275e-001 
 6.7837143e+000  0.0000000e+000  0.0000000e+000  0.0000000e+000  0.0000000e+000  6.9946450e-001  6.9946450e-001  6.9946450e-001 
 7.2831593e+000  0.0000000e+000  0.0000000e+000  0.0000000e+000  0.0000000e+000  6.7010003e-001  6.7010003e-001  6.7010003e-001 
 7.8175659e+000  0.0000000e+000  0.0000000e+000  0.0000000e+000  0.0000000e+000  6.3929248e-001  6.3929248e-001  6.3929248e-001 
 8.3893795e+000  0.0000000e+000  0.0000000e+000  0.0000000e+000  0.0000000e+000  6.0692906e-001  6.0692906e-001  6.0692906e-001 
 9.0012217e+000  0.0000000e+000  0.0000000e+000  0.0000000e+000  0.0000000e+000  5.7287556e-001  5.7287556e-001  5.7287556e-001 
 9.6558924e+000  0.0000000e+000  0.0000000e+000  0.0000000e+000  0.0000000e+000  5.3699130e-001  5.3699130e-001  5.3699130e-001 
 1.0356388e+001  0.0000000e+000  0.0000000e+000  0.0000000e+000  0.0000000e+000  4.9911138e-001  4.9911138e-001  4.9911138e-001 
 1.1105920e+001  0.0000000e+000  0.0000000e+000  0.0000000e+000  0.0000000e+000  4.5906323e-001  4.5906323e-001  4.5906323e-001 
 1.1907920e+001  0.0000000e+000  0.0000000e+000  0.0000000e+000  0.0000000e+000  4.1664940e-001  4.1664940e-001  4.1664940e-001 
 1.2766060e+001  0.0000000e+000  0.0000000e+000  0.0000000e+000  0.0000000e+000  3.7166381e-001  3.7166381e-001  3.7166381e-001 
 1.3684270e+001  0.0000000e+000  0.0000000e+000  0.0000000e+000  0.0000000e+000  3.2387763e-001  3.2387763e-001  3.2387763e-001 
 1.4666756e+001  0.0000000e+000  0.0000000e+000  0.0000000e+000  0.0000000e+000  2.7304819e-001  2.7304819e-001  2.7304819e-001 
 1.5718015e+001  0.0000000e+000  0.0000000e+000  0.0000000e+000  0.0000000e+000  2.1892211e-001  2.1892211e-001  2.1892211e-001 
 1.6842865e+001  0.0000000e+000  0.0000000e+000  0.0000000e+000  0.0000000e+000  1.6121079e-001  1.6121079e-001  1.6121079e-001 
 1.8046452e+001  0.0000000e+000  0.0000000e+000  0.0000000e+000  0.0000000e+000  9.9656768e-002  9.9656768e-002  9.9656768e-002 
 1.9334295e+001  0.0000000e+000  0.0000000e+000  0.0000000e+000  0.0000000e+000  3.3882480e-002  3.3882480e-002  3.3882480e-002 
 2.0000000e+001  0.0000000e+000  0.0000000e+000  0.0000000e+000  0.0000000e+000 -1.1715967e-004 -1.1715967e-004 -1.1715967e-004 
 0.0000000e+000  1.5686335e-002  1.0000000e+000  0.0000000e+000  1.0000000e+000  1.8854789e+000  1.8854789e+000  2.3854790e+000 
 1.2291715e-002  1.5686335e-002  9.5658427e-001  1.3371074e-001  9.6588409e-001  1.8033159e+000  1.8033159e+000  2.2697818e+000 
 3.7736509e-002  1.5686335e-002  8.5467720e-001  1.3599737e-001  8.6542958e-001  1.6332327e+000  1.6332327e+000  2.0077169e+000 
 6.4963534e-002  1.5686335e-002  7.2753012e-001  1.1087783e-001  7.3593068e-001  1.5124484e+000  1.5124484e+000  1.7832454e+000 
 9.4095588e-002  1.5686335e-002  6.0102475e-001  7.8749038e-002  6.0616183e-001  1.4222258e+000  1.4222258e+000  1.6059419e+000 
 1.2526625e-001  1.5686335e-002  4.9323273e-001  4.8197243e-002  4.9558198e-001  1.3525559e+000  1.3525559e+000  1.4753566e+000 
 1.5861896e-001  1.5686335e-002  4.0805539e-001  2.5170863e-002  4.0883100e-001  1.3041501e+000  1.3041501e+000  1.3877215e+000 
 1.9430619e-001  1.5686335e-002  3.4554690e-001  1.0522160e-002  3.4570706e-001  1.2743199e+000  1.2743199e+000  1.3340765e+000 
 2.3249130e-001  1.5686335e-002  3.0202034e-001  2.7291728e-003  3.0203268e-001  1.2571315e+000  1.2571315e+000  1.3027433e+000 
 2.7334976e-001  1.5686335e-002  2.7208790e-001 -3.9082332e-004  2.7208817e-001  1.2466797e+000  1.2466797e+000  1.2836957e+000 
 3.1706923e-001  1.5686335e-002  2.5058466e-001 -1.0385361e-003  2.5058681e-001  1.2386920e+000  1.2386920e+000  1.2700889e+000 
 3.6384889e-001  1.5686335e-002  2.3387422e-001 -8.0923125e-004  2.3387562e-001  1.2310332e+000  1.2310332e+000  1.2583821e+000 
 4.1390228e-001  1.5686335e-002  2.1992257e-001 -4.0478155e-004  2.1992294e-001  1.2229865e+000  1.2229865e+000  1.2471695e+000 
 4.6745992e-001  1.5686335e-002  2.0779236e-001 -1.1804950e-004  2.0779239e-001  1.2145368e+000  1.2145368e+000  1.2361256e+000 
 5.2476656e-001  1.5686335e-002  1.9713052e-001  2.7595148e-005  1.9713052e-001  1.2058228e+000  1.2058228e+000  1.2252531e+000 
 5.8608472e-001  1.5686335e-002  1.8775237e-001  9.2419628e-005  1.8775240e-001  1.1969004e+000  1.1969004e+000  1.2145258e+000 
 6.5169525e-001  1.5686335e-002  1.7951345e-001  1.1180542e-004  1.7951348e-001  1.1877713e+000  1.1877713e+000  1.2038839e+000 
 7.2189790e-001  1.5686335e-002  1.7226577e-001  1.1740629e-004  1.7226581e-001  1.1783714e+000  1.1783714e+000  1.1932092e+000 
 7.9701531e-001  1.5686335e-002  1.6584627e-001  1.1802047e-004  1.6584632e-001  1.1686409e+000  1.1686409e+000  1.1823933e+000 
 8.7739104e-001  1.5686335e-002  1.6011220e-001  1.1566533e-004  1.6011225e-001  1.1585391e+000  1.1585391e+000  1.1713570e+000 
 9.6339333e-001  1.5686335e-002  1.5494709e-001  1.1090370e-004  1.5494713e-001  1.1480387e+000  1.1480387e+000  1.1600430e+000 
 1.0554160e+000  1.5686335e-002  1.5027142e-001  1.0373313e-004  1.5027145e-001  1.1371220e+000  1.1371220e+000  1.1484128e+000 
 1.1538795e+000  1.5686335e-002  1.4600365e-001  9.8305311e-005  1.4600368e-001  1.1257622e+000  1.1257622e+000  1.1364207e+000 
 1.2592361e+000  1.5686335e-002  1.4207758e-001  9.1051799e-005  1.4207761e-001  1.1139573e+000  1.1139573e+000  1.1240503e+000 
 1.3719671e+000  1.5686335e-002  1.3844818e-001  8.3733139e-005  1.3844821e-001  1.1016949e+000  1.1016949e+000  1.1112789e+000 
 1.4925885e+000  1.5686335e-002  1.3507801e-001  7.6522898e-005  1.3507803e-001  1.0889642e+000  1.0889642e+000  1.0980873e+000 
 1.6216545e+000  1.5686335e-002  1.3193536e-001  6.9690854e-005  1.3193537e-001  1.0757517e+000  1.0757517e+000  1.0844551e+000 
 1.7597550e+000  1.5686335e-002  1.2899615e-001  6.3127860e-005  1.2899616e-001  1.0620451e+000  1.0620451e+000  1.0703651e+000 
 1.9075224e+000  1.5686335e-002  1.2624069e-001  5.7047266e-005  1.2624070e-001  1.0478268e+000  1.0478268e+000  1.0557951e+000 
 2.0656340e+000  1.5686335e-002  1.2365226e-001  5.1420870e-005  1.2365227e-001  1.0330789e+000  1.0330789e+000  1.0407238e+000 
 2.2348135e+000  1.5686335e-002  1.2122115e-001  4.6027839e-005  1.2122116e-001  1.0177797e+000  1.0177797e+000  1.0251269e+000 
 2.4158354e+000  1.5686335e-002  1.1893202e-001  4.1441206e-005  1.1893203e-001  1.0019010e+000  1.0019010e+000  1.0089735e+000 
 2.6095285e+000  1.5686335e-002  1.1677258e-001  3.7151854e-005  1.1677258e-001  9.8542243e-001  9.8542243e-001  9.9224037e-001 
 2.8167806e+000  1.5686335e-002  1.1473703e-001  3.3246841e-005  1.1473703e-001  9.6831465e-001  9.6831465e-001  9.7489697e-001 
 3.0385399e+000  1.5686335e-002  1.1281861e-001  2.9685056e-005  1.1281862e-001  9.5054549e-001  9.5054549e-001  9.5690954e-001 
 3.2758224e+000  1.5686335e-002  1.1101015e-001  2.6467538e-005  1.1101015e-001  9.3208086e-001  9.3208086e-001  9.3824250e-001 
 3.5297146e+000  1.5686335e-002  1.0930633e-001  2.3486984e-005  1.0930633e-001  9.1288495e-001  9.1288495e-001  9.1885889e-001 
 3.8013785e+000  1.5686335e-002  1.0770176e-001  2.1032787e-005  1.0770176e-001  8.9291811e-001  8.9291811e-001  8.9871794e-001 
 4.0920601e+000  1.5686335e-002  1.0619275e-001  1.8438501e-005  1.0619275e-001  8.7213838e-001  8.7213838e-001  8.7777686e-001 
 4.4030900e+000  1.5686335e-002  1.0477452e-001  1.6416023e-005  1.0477452e-001  8.5049903e-001  8.5049903e-001  8.5598791e-001 
 4.7358913e+000  1.5686335e-002  1.0344452e-001  1.4374244e-005  1.0344452e-001  8.2795179e-001  8.2795179e-001  8.3330220e-001 
 5.0919890e+000  1.5686335e-002  1.0219961e-001  1.2743553e-005  1.0219961e-001  8.0444109e-001  8.0444109e-001  8.0966347e-001 
 5.4730139e+000  1.5686335e-002  1.0103894e-001  1.1187729e-005  1.0103894e-001  7.7990866e-001  7.7990866e-001  7.8501308e-001 
 5.8807087e+000  1.5686335e-002  9.9959731e-002  9.7834072e-006  9.9959731e-002  7.5428647e-001  7.5428647e-001  7.5928247e-001 
 6.3169422e+000  1.5686335e-002  9.8962463e-002  8.4068033e-006  9.8962463e-002  7.2750294e-001  7.2750294e-001  7.3239970e-001 
 6.7837143e+000  1.5686335e-002  9.8044634e-002  7.2913431e-006  9.8044634e-002  6.9947326e-001  6.9947326e-001  7.0427966e-001 
 7.2831593e+000  1.5686335e-002  9.7207382e-002  6.2434929e-006  9.7207382e-002  6.7010736e-001  6.7010736e-001  6.7483199e-001 
 7.8175659e+000  1.5686335e-002  9.6447565e-002  5.2668483e-006  9.6447565e-002  6.3929868e-001  6.3929868e-001  6.4394975e-001 
 8.3893795e+000  1.5686335e-002  9.5766418e-002  4.4692115e-006  9.5766418e-002  6.0693419e-001  6.0693419e-001  6.1151981e-001 
 9.0012217e+000  1.5686335e-002  9.5159546e-002  3.7479670e-006  9.5159546e-002  5.7287985e-001  5.7287985e-001  5.7740754e-001 
 9.6558924e+000  1.5686335e-002  9.4627514e-002  3.0370240e-006  9.4627514e-002  5.3699476e-001  5.3699476e-001  5.4147196e-001 
 1.0356388e+001  1.5686335e-002  9.4164103e-002  2.4528451e-006  9.4164103e-002  4.9911422e-001  4.9911422e-001  5.0354767e-001 
 1.1105920e+001  1.5686335e-002  9.3768902e-002  1.9596050e-006  9.3768902e-002  4.5906547e-001  4.5906547e-001  4.6346176e-001 
 1.1907920e+001  1.5686335e-002  9.3433931e-002  1.5415128e-006  9.3433931e-002  4.1665116e-001  4.1665116e-001  4.2101610e-001 
 1.2766060e+001  1.5686335e-002  9.3157224e-002  1.1787255e-006  9.3157224e-002  3.7166518e-001  3.7166518e-001  3.7600431e-001 
 1.3684270e+001  1.5686335e-002  9.2930585e-002  9.2076357e-007  9.2930585e-002  3.2387865e-001  3.2387865e-001  3.2819670e-001 
 1.4666756e+001  1.5686335e-002  9.2749089e-002  6.6487985e-007  9.2749089e-002  2.7304900e-001  2.7304900e-001  2.7735019e-001 
 1.5718015e+001  1.5686335e-002  9.2608221e-002  4.6952192e-007  9.2608221e-002  2.1892269e-001  2.1892269e-001  2.2321083e-001 
 1.6842865e+001  1.5686335e-002  9.2495024e-002  3.4212940e-007  9.2495024e-002  1.6121119e-001  1.6121119e-001  1.6548885e-001 
 1.8046452e+001  1.5686335e-002  9.2421293e-002  2.1778342e-007  9.2421293e-002  9.9657074e-002  9.9657074e-002  1.0392792e-001 
 1.9334295e+001  1.5686335e-002  9.2339545e-002  4.0436980e-008  9.2339545e-002  3.3882599e-002  3.3882599e-002  3.8145896e-002 
 2.0000000e+001  1.5686335e-002  9.2339545e-002  4.3603634e-008  9.2339545e-002  0.0000000e+000  0.0000000e+000  4.2632958e-003 
 0.0000000e+000  4.8627645e-002  1.0000000e+000  0.0000000e+000  1.0000000e+000  1.6297121e+000  1.6297121e+000  2.1297121e+000 
 1.2291715e-002  4.8627645e-002  1.0252144e+000  7.4832588e-002  1.0279419e+000  1.5965816e+000  1.5965816e+000  2.1249139e+000 
 3.7736509e-002  4.8627645e-002  1.0634744e+000  1.4613655e-001  1.0734681e+000  1.5279994e+000  1.5279994e+000  2.1041663e+000 
 6.4963534e-002  4.8627645e-002  1.0741028e+000  1.6851570e-001  1.0872416e+000  1.4612098e+000  1.4612098e+000  2.0522568e+000 
 9.4095588e-002  4.8627645e-002  1.0620462e+000  1.6474941e-001  1.0747485e+000  1.4000913e+000  1.4000913e+000  1.9776335e+000 
 1.2526625e-001  4.8627645e-002  1.0275859e+000  1.4448161e-001  1.0376934e+000  1.3518544e+000  1.3518544e+000  1.8902583e+000 
 1.5861896e-001  4.8627645e-002  9.7734433e-001  1.1534765e-001  9.8412752e-001  1.3152807e+000  1.3152807e+000  1.7995342e+000 
 1.9430619e-001  4.8627645e-002  9.1806775e-001  8.5544266e-002  9.2204458e-001  1.2894323e+000  1.2894323e+000  1.7145154e+000 
 2.3249130e-001  4.8627645e-002  8.5562718e-001  6.0722739e-002  8.5777920e-001  1.2715924e+000  1.2715924e+000  1.6394849e+000 
 2.7334976e-001  4.8627645e-002  7.9583865e-001  4.2593904e-002  7.9697764e-001  1.2583398e+000  1.2583398e+000  1.5759264e+000 
 3.1706923e-001  4.8627645e-002  7.4135280e-001  3.0664973e-002  7.4198675e-001  1.2473396e+000  1.2473396e+000  1.5226117e+000 
 3.6384889e-001  4.8627645e-002  6.9316673e-001  2.2972008e-002  6.9354731e-001  1.2372416e+000  1.2372416e+000  1.4777455e+000 
 4.1390228e-001  4.8627645e-002  6.5115964e-001  1.7836697e-002  6.5140390e-001  1.2274665e+000  1.2274665e+000  1.4396300e+000 
 4.6745992e-001  4.8627645e-002  6.1468434e-001  1.4157408e-002  6.1484736e-001  1.2178433e+000  1.2178433e+000  1.4068619e+000 
 5.2476656e-001  4.8627645e-002  5.8297032e-001  1.1349206e-002  5.8308077e-001  1.2083278e+000  1.2083278e+000  1.3783194e+000 
 5.8608472e-001  4.8627645e-002  5.5525482e-001  9.1672316e-003  5.5533051e-001  1.1988381e+000  1.1988381e+000  1.3530341e+000 
 6.5169525e-001  4.8627645e-002  5.3091592e-001  7.4422648e-003  5.3096807e-001  1.1892962e+000  1.1892962e+000  1.3302598e+000 
 7.2189790e-001  4.8627645e-002  5.0944394e-001  6.0957391e-003  5.0948042e-001  1.1795866e+000  1.1795866e+000  1.3093718e+000 
 7.9701531e-001  4.8627645e-002  4.9038622e-001  5.0451164e-003  4.9041218e-001  1.1696211e+000  1.1696211e+000  1.2898731e+000 
 8.7739104e-001  4.8627645e-002  4.7336060e-001  4.2177071e-003  4.7337937e-001  1.1593393e+000  1.1593393e+000  1.2713833e+000 
 9.6339333e-001  4.8627645e-002  4.5804498e-001  3.5548864e-003  4.5805877e-001  1.1486989e+000  1.1486989e+000  1.2536079e+000 
 1.0554160e+000  4.8627645e-002  4.4420579e-001  3.0153408e-003  4.4421601e-001  1.1376717e+000  1.1376717e+000  1.2363356e+000 
 1.1538795e+000  4.8627645e-002  4.3161100e-001  2.5829608e-003  4.3161872e-001  1.1262239e+000  1.1262239e+000  1.2193713e+000 
 1.2592361e+000  4.8627645e-002  4.2006782e-001  2.2251268e-003  4.2007372e-001  1.1143489e+000  1.1143489e+000  1.2025799e+000 
 1.3719671e+000  4.8627645e-002  4.0943176e-001  1.9270579e-003  4.0943629e-001  1.1020294e+000  1.1020294e+000  1.1858485e+000 
 1.4925885e+000  4.8627645e-002  3.9958668e-001  1.6759561e-003  3.9959019e-001  1.0892516e+000  1.0892516e+000  1.1690878e+000 
 1.6216545e+000  4.8627645e-002  3.9043358e-001  1.4633497e-003  3.9043632e-001  1.0759999e+000  1.0759999e+000  1.1522201e+000 
 1.7597550e+000  4.8627645e-002  3.8189551e-001  1.2806318e-003  3.8189766e-001  1.0622604e+000  1.0622604e+000  1.1351833e+000 
 1.9075224e+000  4.8627645e-002  3.7390980e-001  1.1236330e-003  3.7391150e-001  1.0480142e+000  1.0480142e+000  1.1179191e+000 
 2.0656340e+000  4.8627645e-002  3.6642316e-001  9.8656293e-004  3.6642450e-001  1.0332423e+000  1.0332423e+000  1.1003758e+000 
 2.2348135e+000  4.8627645e-002  3.5940206e-001  8.6703914e-004  3.5940310e-001  1.0179224e+000  1.0179224e+000  1.0825077e+000 
 2.4158354e+000  4.8627645e-002  3.5280207e-001  7.6419016e-004  3.5280290e-001  1.0020260e+000  1.0020260e+000  1.0642610e+000 
 2.6095285e+000  4.8627645e-002  3.4658599e-001  6.7357841e-004  3.4658664e-001  9.8553199e-001  9.8553199e-001  1.0455931e+000 
 2.8167806e+000  4.8627645e-002  3.4073290e-001  5.9337175e-004  3.4073341e-001  9.6841079e-001  9.6841079e-001  1.0264604e+000 
 3.0385399e+000  4.8627645e-002  3.3522242e-001  5.2288681e-004  3.3522284e-001  9.5062989e-001  9.5062989e-001  1.0068171e+000 
 3.2758224e+000  4.8627645e-002  3.3003345e-001  4.6070630e-004  3.3003378e-001  9.3215489e-001  9.3215489e-001  9.8661602e-001 
 3.5297146e+000  4.8627645e-002  3.2514998e-001  4.0562943e-004  3.2515022e-001  9.1294992e-001  9.1294992e-001  9.6581125e-001 
 3.8013785e+000  4.8627645e-002  3.2055554e-001  3.5676482e-004  3.2055575e-001  8.9297509e-001  8.9297509e-001  9.4435310e-001 
 4.0920601e+000  4.8627645e-002  3.1623927e-001  3.1362337e-004  3.1623942e-001  8.7218827e-001  8.7218827e-001  9.2219198e-001 
 4.4030900e+000  4.8627645e-002  3.1218681e-001  2.7517066e-004  3.1218693e-001  8.5054272e-001  8.5054272e-001  8.9927304e-001 
 4.7358913e+000  4.8627645e-002  3.0839077e-001  2.4113993e-004  3.0839086e-001  8.2798988e-001  8.2798988e-001  8.7554234e-001 
 5.0919890e+000  4.8627645e-002  3.0484119e-001  2.1048902e-004  3.0484125e-001  8.0447435e-001  8.0447435e-001  8.5093844e-001 
 5.4730139e+000  4.8627645e-002  3.0153540e-001  1.8321707e-004  3.0153546e-001  7.7993751e-001  7.7993751e-001  8.2539934e-001 
 5.8807087e+000  4.8627645e-002  2.9846486e-001  1.5873073e-004  2.9846489e-001  7.5431150e-001  7.5431150e-001  7.9885215e-001 
 6.3169422e+000  4.8627645e-002  2.9563054e-001  1.3689473e-004  2.9563057e-001  7.2752434e-001  7.2752434e-001  7.7122307e-001 
 6.7837143e+000  4.8627645e-002  2.9302436e-001  1.1723507e-004  2.9302439e-001  6.9949162e-001  6.9949162e-001  7.4242324e-001 
 7.2831593e+000  4.8627645e-002  2.9064965e-001  9.9681893e-005  2.9064968e-001  6.7012298e-001  6.7012298e-001  7.1236157e-001 
 7.8175659e+000  4.8627645e-002  2.8849626e-001  8.4171799e-005  2.8849626e-001  6.3931185e-001  6.3931185e-001  6.8092692e-001 
 8.3893795e+000  4.8627645e-002  2.8656787e-001  7.0203168e-005  2.8656787e-001  6.0694510e-001  6.0694510e-001  6.4800566e-001 
 9.0012217e+000  4.8627645e-002  2.8485072e-001  5.8070938e-005  2.8485072e-001  5.7288891e-001  5.7288891e-001  6.1345887e-001 
 9.6558924e+000  4.8627645e-002  2.8334686e-001  4.7377111e-005  2.8334686e-001  5.3700215e-001  5.3700215e-001  5.7714486e-001 
 1.0356388e+001  4.8627645e-002  2.8203741e-001  3.8246770e-005  2.8203741e-001  4.9912015e-001  4.9912015e-001  5.3889269e-001 
 1.1105920e+001  4.8627645e-002  2.8092176e-001  3.0375268e-005  2.8092176e-001  4.5907018e-001  4.5907018e-001  4.9852869e-001 
 1.1907920e+001  4.8627645e-002  2.7997607e-001  2.3827419e-005  2.7997607e-001  4.1665486e-001  4.1665486e-001  4.5584816e-001 
 1.2766060e+001  4.8627645e-002  2.7919573e-001  1.8287672e-005  2.7919573e-001  3.7166804e-001  3.7166804e-001  4.1064316e-001 
 1.3684270e+001  4.8627645e-002  2.7855632e-001  1.3870472e-005  2.7855632e-001  3.2388079e-001  3.2388079e-001  3.6267760e-001 
 1.4666756e+001  4.8627645e-002  2.7804479e-001  1.0217944e-005  2.7804479e-001  2.7305061e-001  2.7305061e-001  3.1170505e-001 
 1.5718015e+001  4.8627645e-002  2.7764755e-001  7.5251460e-006  2.7764755e-001  2.1892387e-001  2.1892387e-001  2.5746796e-001 
 1.6842865e+001  4.8627645e-002  2.7732837e-001  5.2573359e-006  2.7732837e-001  1.6121200e-001  1.6121200e-001  1.9966751e-001 
 1.8046452e+001  4.8627645e-002  2.7712116e-001  3.8936323e-006  2.7712116e-001  9.9657692e-002  9.9657692e-002  1.3805576e-001 
 1.9334295e+001  4.8627645e-002  2.7689025e-001  2.1440858e-006  2.7689025e-001  3.3882841e-002  3.3882841e-002  7.2216943e-002 
 2.0000000e+001  4.8627645e-002  2.7689022e-001  2.1447463e-006  2.7689022e-001  0.0000000e+000  0.0000000e+000  3.8334098e-002 
 0.0000000e+000  8.4863111e-002  1.0000000e+000  0.0000000e+000  1.0000000e+000  1.4981027e+000  1.4981027e+000  1.9981027e+000 
 1.2291715e-002  8.4863111e-002  1.0071084e+000  3.1211579e-002  1.0075920e+000  1.4899369e+000  1.4899369e+000  1.9975578e+000 
 3.7736509e-002  8.4863111e-002  1.0323067e+000  8.0676250e-002  1.0354544e+000  1.4730334e+000  1.4730334e+000  2.0091162e+000 
 6.4963534e-002  8.4863111e-002  1.0673239e+000  1.1486436e-001  1.0734869e+000  1.4375458e+000  1.4375458e+000  2.0137329e+000 
 9.4095588e-002  8.4863111e-002  1.0991529e+000  1.3449042e-001  1.1073503e+000  1.3967235e+000  1.3967235e+000  2.0098360e+000 
 1.2526625e-001  8.4863111e-002  1.1200496e+000  1.3751863e-001  1.1284602e+000  1.3590727e+000  1.3590727e+000  1.9957839e+000 
 1.5861896e-001  8.4863111e-002  1.1273271e+000  1.3141318e-001  1.1349607e+000  1.3251675e+000  1.3251675e+000  1.9692354e+000 
 1.9430619e-001  8.4863111e-002  1.1233357e+000  1.1894514e-001  1.1296154e+000  1.2971691e+000  1.2971691e+000  1.9351846e+000 
 2.3249130e-001  8.4863111e-002  1.1070254e+000  1.0387609e-001  1.1118883e+000  1.2773143e+000  1.2773143e+000  1.8954620e+000 
 2.7334976e-001  8.4863111e-002  1.0817477e+000  8.8345915e-002  1.0853492e+000  1.2625374e+000  1.2625374e+000  1.8515289e+000 
 3.1706923e-001  8.4863111e-002  1.0506984e+000  7.4238665e-002  1.0533179e+000  1.2506627e+000  1.2506627e+000  1.8054019e+000 
 3.6384889e-001  8.4863111e-002  1.0163796e+000  6.1901826e-002  1.0182629e+000  1.2402451e+000  1.2402451e+000  1.7586747e+000 
 4.1390228e-001  8.4863111e-002  9.8079580e-001  5.1318515e-002  9.8213744e-001  1.2302696e+000  1.2302696e+000  1.7125665e+000 
 4.6745992e-001  8.4863111e-002  9.4532520e-001  4.2394616e-002  9.4627535e-001  1.2204125e+000  1.2204125e+000  1.6681310e+000 
 5.2476656e-001  8.4863111e-002  9.1081291e-001  3.4965467e-002  9.1148382e-001  1.2106031e+000  1.2106031e+000  1.6260045e+000 
 5.8608472e-001  8.4863111e-002  8.7782234e-001  2.8857077e-002  8.7829655e-001  1.2007812e+000  1.2007812e+000  1.5864836e+000 
 6.5169525e-001  8.4863111e-002  8.4674901e-001  2.3819279e-002  8.4708399e-001  1.1909115e+000  1.1909115e+000  1.5496871e+000 
 7.2189790e-001  8.4863111e-002  8.1783462e-001  1.9720629e-002  8.1807232e-001  1.1808994e+000  1.1808994e+000  1.5155206e+000 
 7.9701531e-001  8.4863111e-002  7.9114020e-001  1.6406706e-002  7.9131031e-001  1.1706773e+000  1.1706773e+000  1.4837633e+000 
 8.7739104e-001  8.4863111e-002  7.6660144e-001  1.3729135e-002  7.6672435e-001  1.1601878e+000  1.1601878e+000  1.4541210e+000 
 9.6339333e-001  8.4863111e-002  7.4406636e-001  1.1553140e-002  7.4415606e-001  1.1493837e+000  1.1493837e+000  1.4262677e+000 
 1.0554160e+000  8.4863111e-002  7.2339123e-001  9.7741326e-003  7.2345728e-001  1.1382267e+000  1.1382267e+000  1.3999220e+000 
 1.1538795e+000  8.4863111e-002  7.0436656e-001  8.3356611e-003  7.0441586e-001  1.1266761e+000  1.1266761e+000  1.3747770e+000 
 1.2592361e+000  8.4863111e-002  6.8679273e-001  7.1512097e-003  6.8682998e-001  1.1147220e+000  1.1147220e+000  1.3505898e+000 
 1.3719671e+000  8.4863111e-002  6.7050642e-001  6.1685853e-003  6.7053479e-001  1.1023401e+000  1.1023401e+000  1.3271486e+000 
 1.4925885e+000  8.4863111e-002  6.5536761e-001  5.3454544e-003  6.5538943e-001  1.0895127e+000  1.0895127e+000  1.3042804e+000 
 1.6216545e+000  8.4863111e-002  6.4124972e-001  4.6509407e-003  6.4126658e-001  1.0762209e+000  1.0762209e+000  1.2818323e+000 
 1.7597550e+000  8.4863111e-002  6.2804997e-001  4.0588919e-003  6.2806308e-001  1.0624486e+000  1.0624486e+000  1.2596803e+000 
 1.9075224e+000  8.4863111e-002  6.1568153e-001  3.5518343e-003  6.1569178e-001  1.0481755e+000  1.0481755e+000  1.2377136e+000 
 2.0656340e+000  8.4863111e-002  6.0406846e-001  3.1123245e-003  6.0407650e-001  1.0333813e+000  1.0333813e+000  1.2158356e+000 
 2.2348135e+000  8.4863111e-002  5.9316200e-001  2.7303351e-003  5.9316826e-001  1.0180424e+000  1.0180424e+000  1.1939667e+000 
 2.4158354e+000  8.4863111e-002  5.8289927e-001  2.4014614e-003  5.8290422e-001  1.0021298e+000  1.0021298e+000  1.1720184e+000 
 2.6095285e+000  8.4863111e-002  5.7322729e-001  2.1132373e-003  5.7323116e-001  9.8562229e-001  9.8562229e-001  1.1499193e+000 
 2.8167806e+000  8.4863111e-002  5.6411296e-001  1.8595879e-003  5.6411600e-001  9.6848941e-001  9.6848941e-001  1.1276028e+000 
 3.0385399e+000  8.4863111e-002  5.5552715e-001  1.6363324e-003  5.5552953e-001  9.5069838e-001  9.5069838e-001  1.1050049e+000 
 3.2758224e+000  8.4863111e-002  5.4743934e-001  1.4398012e-003  5.4744124e-001  9.3221462e-001  9.3221462e-001  1.0820606e+000 
 3.5297146e+000  8.4863111e-002  5.3982657e-001  1.2662007e-003  5.3982806e-001  9.1300207e-001  9.1300207e-001  1.0587093e+000 
 3.8013785e+000  8.4863111e-002  5.3266400e-001  1.1126648e-003  5.3266513e-001  8.9302045e-001  8.9302045e-001  1.0348866e+000 
 4.0920601e+000  8.4863111e-002  5.2593625e-001  9.7666634e-004  5.2593714e-001  8.7222785e-001  8.7222785e-001  1.0105327e+000 
 4.4030900e+000  8.4863111e-002  5.1962143e-001  8.5619022e-004  5.1962215e-001  8.5057712e-001  8.5057712e-001  9.8558068e-001 
 4.7358913e+000  8.4863111e-002  5.1370966e-001  7.4885233e-004  5.1371020e-001  8.2801986e-001  8.2801986e-001  9.5996892e-001 
 5.0919890e+000  8.4863111e-002  5.0818467e-001  6.5325049e-004  5.0818509e-001  8.0450028e-001  8.0450028e-001  9.3362635e-001 
 5.4730139e+000  8.4863111e-002  5.0304323e-001  5.6780159e-004  5.0304353e-001  7.7996004e-001  7.7996004e-001  9.0648645e-001 
 5.8807087e+000  8.4863111e-002  4.9827129e-001  4.9146946e-004  4.9827152e-001  7.5433087e-001  7.5433087e-001  8.7846816e-001 
 6.3169422e+000  8.4863111e-002  4.9387100e-001  4.2317278e-004  4.9387118e-001  7.2754097e-001  7.2754097e-001  8.4949535e-001 