Variables = "x","y","z", "Shear Stress_x", "Shear Stress_y", "Shear Stress_z", "Shear Stress_circ", "Skin Friction"
Zone i=1, j=22, k=2
 0.0000000e+000  0.0000000e+000  0.0000000e+000  0.0000000e+000  0.0000000e+000  0.0000000e+000  0.0000000e+000  3.9588964e-001 
 0.0000000e+000  1.5686335e-002  0.0000000e+000  2.8025969e-045  1.7835727e-041  0.0000000e+000 -2.8025969e-045 -4.8282173e-002 
 0.0000000e+000  4.8627645e-002  0.0000000e+000  0.0000000e+000  0.0000000e+000  0.0000000e+000  0.0000000e+000  2.2124739e-002 
 0.0000000e+000  8.4863111e-002  0.0000000e+000  2.8025969e-045  1.7835727e-041  0.0000000e+000 -2.8025969e-045  8.3684679e-003 
 0.0000000e+000  1.2472210e-001  0.0000000e+000  0.0000000e+000  0.0000000e+000  0.0000000e+000  0.0000000e+000  4.0884628e-003 
 0.0000000e+000  1.6856700e-001  0.0000000e+000  2.8025969e-045  1.7835727e-041  0.0000000e+000 -2.8025969e-045  2.4693033e-003 
 0.0000000e+000  2.1679640e-001  0.0000000e+000  0.0000000e+000  0.0000000e+000  0.0000000e+000  0.0000000e+000  1.6211664e-003 
 0.0000000e+000  2.6984873e-001  0.0000000e+000  2.8025969e-045  1.7835727e-041  0.0000000e+000 -2.8025969e-045  1.0731653e-003 
 0.0000000e+000  3.2820630e-001  0.0000000e+000  0.0000000e+000  0.0000000e+000  0.0000000e+000  0.0000000e+000  6.8485190e-004 
 0.0000000e+000  3.9239961e-001  0.0000000e+000  2.8025969e-045  1.7835727e-041  0.0000000e+000 -2.8025969e-045  3.8552895e-004 
 0.0000000e+000  4.6301234e-001  0.0000000e+000  0.0000000e+000  0.0000000e+000  0.0000000e+000  0.0000000e+000  1.3447266e-004 
 0.0000000e+000  5.3838348e-001  0.0000000e+000  2.8025969e-045  1.7835727e-041  0.0000000e+000 -2.8025969e-045  1.3292873e-004 
 0.0000000e+000  6.1131215e-001  0.0000000e+000  0.0000000e+000  0.0000000e+000  0.0000000e+000  0.0000000e+000  3.9273067e-004 
 0.0000000e+000  6.7694795e-001  0.0000000e+000  2.8025969e-045  1.7835727e-041  0.0000000e+000 -2.8025969e-045  7.0626230e-004 
 0.0000000e+000  7.3602021e-001  0.0000000e+000  0.0000000e+000  0.0000000e+000  0.0000000e+000  0.0000000e+000  1.1170688e-003 
 0.0000000e+000  7.8918511e-001  0.0000000e+000  2.8025969e-045  1.7835727e-041  0.0000000e+000 -2.8025969e-045  1.7052758e-003 
 0.0000000e+000  8.3703363e-001  0.0000000e+000  0.0000000e+000  0.0000000e+000  0.0000000e+000  0.0000000e+000  2.6327437e-003 
 0.0000000e+000  8.8009727e-001  0.0000000e+000  2.8025969e-045  1.7835727e-041  0.0000000e+000 -2.8025969e-045  4.4481666e-003 
 0.0000000e+000  9.1885448e-001  0.0000000e+000  0.0000000e+000  0.0000000e+000  0.0000000e+000  0.0000000e+000  9.2787594e-003 
 0.0000000e+000  9.5373595e-001  0.0000000e+000  2.8025969e-045  1.7835727e-041  0.0000000e+000 -2.8025969e-045  2.4706962e-002 
 0.0000000e+000  9.8512936e-001  0.0000000e+000  0.0000000e+000  0.0000000e+000  0.0000000e+000  0.0000000e+000 -5.1792305e-002 
 0.0000000e+000  1.0000000e+000  0.0000000e+000  2.8025969e-045  1.7835727e-041  0.0000000e+000 -2.8025969e-045  4.1818905e-001 
 0.0000000e+000  0.0000000e+000  1.0000000e+000  3.8944435e-001  5.0157421e-005  0.0000000e+000  0.0000000e+000  3.9588964e-001 
 0.0000000e+000  1.5686335e-002  1.0000000e+000  7.1865097e-002 -1.2310273e-004  0.0000000e+000 -7.1865097e-002 -4.8282173e-002 
 0.0000000e+000  4.8627645e-002  1.0000000e+000 -1.9186441e-002  5.9841437e-005  0.0000000e+000  1.9186441e-002  2.2124739e-002 
 0.0000000e+000  8.4863111e-002  1.0000000e+000  4.4306304e-002 -3.8814478e-004  0.0000000e+000 -4.4306304e-002  8.3684679e-003 
 0.0000000e+000  1.2472210e-001  1.0000000e+000  1.2610637e-002  8.1796534e-005  0.0000000e+000 -1.2610637e-002  4.0884628e-003 
 0.0000000e+000  1.6856700e-001  1.0000000e+000  1.8178998e-002 -7.0150965e-004  0.0000000e+000 -1.8178998e-002  2.4693033e-003 
 0.0000000e+000  2.1679640e-001  1.0000000e+000  2.5717739e-003  1.2107909e-004  0.0000000e+000 -2.5717739e-003  1.6211664e-003 
 0.0000000e+000  2.6984873e-001  1.0000000e+000  7.9634925e-003 -1.1104875e-003  0.0000000e+000 -7.9634925e-003  1.0731653e-003 
 0.0000000e+000  3.2820630e-001  1.0000000e+000  7.7955693e-004  1.9369942e-004  0.0000000e+000 -7.7955693e-004  6.8485190e-004 
 0.0000000e+000  3.9239961e-001  1.0000000e+000  4.0134550e-003 -1.6942391e-003  0.0000000e+000 -4.0134550e-003  3.8552895e-004 
 0.0000000e+000  4.6301234e-001  1.0000000e+000  3.1383650e-004  3.5337071e-004  0.0000000e+000 -3.1383650e-004  1.3447266e-004 
 0.0000000e+000  5.3838348e-001  1.0000000e+000  2.4492785e-003 -2.6089209e-003  0.0000000e+000 -2.4492785e-003  1.3292873e-004 
 0.0000000e+000  6.1131215e-001  1.0000000e+000  1.7928371e-004  9.0015307e-004  0.0000000e+000 -1.7928371e-004  3.9273067e-004 
 0.0000000e+000  6.7694795e-001  1.0000000e+000  1.6112225e-003 -4.3561351e-003  0.0000000e+000 -1.6112225e-003  7.0626230e-004 
 0.0000000e+000  7.3602021e-001  1.0000000e+000  1.1433440e-004  3.0298317e-003  0.0000000e+000 -1.1433440e-004  1.1170688e-003 
 0.0000000e+000  7.8918511e-001  1.0000000e+000  1.0670574e-003 -8.7701483e-003  0.0000000e+000 -1.0670574e-003  1.7052758e-003 
 0.0000000e+000  8.3703363e-001  1.0000000e+000  7.9243044e-005  1.4103271e-002  0.0000000e+000 -7.9243044e-005  2.6327437e-003 
 0.0000000e+000  8.8009727e-001  1.0000000e+000  6.8025192e-004 -2.0286243e-002  0.0000000e+000 -6.8025192e-004  4.4481666e-003 
 0.0000000e+000  9.1885448e-001  1.0000000e+000  5.8774589e-005 -2.1987692e-002  0.0000000e+000 -5.8774589e-005  9.2787594e-003 
 0.0000000e+000  9.5373595e-001  1.0000000e+000  3.8102246e-004 -4.6893325e-002  0.0000000e+000 -3.8102246e-004  2.4706962e-002 
 0.0000000e+000  9.8512936e-001  1.0000000e+000  5.0042167e-005  4.1044992e-001  0.0000000e+000 -5.0042167e-005 -5.1792305e-002 
 0.0000000e+000  1.0000000e+000  1.0000000e+000  1.2481459e-004 -8.0718696e-002  0.0000000e+000 -1.2481459e-004  4.1818905e-001 
Zone i=1, j=22, k=2
 2.0000000e+001  0.0000000e+000  0.0000000e+000  0.0000000e+000  7.6931286e-043  0.0000000e+000  7.6931286e-043  2.7856553e-002 
 2.0000000e+001  1.5686335e-002  0.0000000e+000  0.0000000e+000  2.9387429e-039  0.0000000e+000  2.9387420e-039  2.7456498e-002 
 2.0000000e+001  4.8627645e-002  0.0000000e+000  0.0000000e+000  7.6931286e-043  0.0000000e+000  7.6931058e-043  2.5161069e-002 
 2.0000000e+001  8.4863111e-002  0.0000000e+000  0.0000000e+000  2.9387429e-039  0.0000000e+000  2.9387164e-039  2.3049498e-002 
 2.0000000e+001  1.2472210e-001  0.0000000e+000  0.0000000e+000  7.6931286e-043  0.0000000e+000  7.6929790e-043  2.0711116e-002 
 2.0000000e+001  1.6856700e-001  0.0000000e+000  0.0000000e+000  2.9387429e-039  0.0000000e+000  2.9386385e-039  1.8123996e-002 
 2.0000000e+001  2.1679640e-001  0.0000000e+000  0.0000000e+000  7.6931286e-043  0.0000000e+000  7.6926766e-043  1.5277479e-002 
 2.0000000e+001  2.6984873e-001  0.0000000e+000  0.0000000e+000  2.9387429e-039  0.0000000e+000  2.9384754e-039  1.2181574e-002 
 2.0000000e+001  3.2820630e-001  0.0000000e+000  0.0000000e+000  7.6931286e-043  0.0000000e+000  7.6920929e-043  8.8729747e-003 
 2.0000000e+001  3.9239961e-001  0.0000000e+000  0.0000000e+000  2.9387429e-039  0.0000000e+000  2.9381774e-039  5.3994525e-003 
 2.0000000e+001  4.6301234e-001  0.0000000e+000  0.0000000e+000  7.6931286e-043  0.0000000e+000  7.6910678e-043  1.7667518e-003 
 2.0000000e+001  5.3838348e-001  0.0000000e+000  0.0000000e+000  2.9387429e-039  0.0000000e+000  2.9376787e-039  1.8291989e-003 
 2.0000000e+001  6.1131215e-001  0.0000000e+000  0.0000000e+000  7.6931286e-043  0.0000000e+000  7.6895374e-043  5.5872407e-003 
 2.0000000e+001  6.7694795e-001  0.0000000e+000  0.0000000e+000  2.9387429e-039  0.0000000e+000  2.9370609e-039  9.1522215e-003 
 2.0000000e+001  7.3602021e-001  0.0000000e+000  0.0000000e+000  7.6931286e-043  0.0000000e+000  7.6879244e-043  1.2515039e-002 
 2.0000000e+001  7.8918511e-001  0.0000000e+000  0.0000000e+000  2.9387429e-039  0.0000000e+000  2.9364577e-039  1.5626330e-002 
 2.0000000e+001  8.3703363e-001  0.0000000e+000  0.0000000e+000  7.6931286e-043  0.0000000e+000  7.6863999e-043  1.8454313e-002 
 2.0000000e+001  8.8009727e-001  0.0000000e+000  0.0000000e+000  2.9387429e-039  0.0000000e+000  2.9359017e-039  2.0996625e-002 
 2.0000000e+001  9.1885448e-001  0.0000000e+000  0.0000000e+000  7.6931286e-043  0.0000000e+000  7.6850223e-043  2.3271065e-002 
 2.0000000e+001  9.5373595e-001  0.0000000e+000  0.0000000e+000  2.9387429e-039  0.0000000e+000  2.9354072e-039  2.5304804e-002 
 2.0000000e+001  9.8512936e-001  0.0000000e+000  0.0000000e+000  7.6931286e-043  0.0000000e+000  7.6838130e-043  2.7697474e-002 
 2.0000000e+001  1.0000000e+000  0.0000000e+000  0.0000000e+000  2.9387429e-039  0.0000000e+000  2.9350763e-039  2.7853396e-002 
 2.0000000e+001  0.0000000e+000  1.0000000e+000  2.7856555e-002  1.4340271e-005  0.0000000e+000  1.4340271e-005  2.7856553e-002 
 2.0000000e+001  1.5686335e-002  1.0000000e+000 -5.5958674e-007  1.8291426e-003  0.0000000e+000  1.8291424e-003  2.7456498e-002 
 2.0000000e+001  4.8627645e-002  1.0000000e+000 -1.5343282e-006  8.7978824e-006  0.0000000e+000  8.8015869e-006  2.5161069e-002 
 2.0000000e+001  8.4863111e-002  1.0000000e+000 -2.7456496e-002  5.5872337e-003  0.0000000e+000  5.7036845e-003  2.3049498e-002 
 2.0000000e+001  1.2472210e-001  1.0000000e+000 -4.3255668e-006  1.7294861e-006  0.0000000e+000  1.7564267e-006  2.0711116e-002 
 2.0000000e+001  1.6856700e-001  1.0000000e+000 -2.5161069e-002  9.1522215e-003  0.0000000e+000  9.3639552e-003  1.8123996e-002 
 2.0000000e+001  2.1679640e-001  1.0000000e+000 -6.6580346e-006 -4.0334758e-006  0.0000000e+000 -3.9610712e-006  1.5277479e-002 
 2.0000000e+001  2.6984873e-001  1.0000000e+000 -2.3049496e-002  1.2515039e-002  0.0000000e+000  1.2824866e-002  1.2181574e-002 
 2.0000000e+001  3.2820630e-001  1.0000000e+000 -8.2218803e-006 -7.4352652e-006  0.0000000e+000 -7.2993587e-006  8.8729747e-003 
 2.0000000e+001  3.9239961e-001  1.0000000e+000 -2.0711115e-002  1.5626328e-002  0.0000000e+000  1.6029595e-002  5.3994525e-003 
 2.0000000e+001  4.6301234e-001  1.0000000e+000 -8.5745769e-006 -8.6016580e-006  0.0000000e+000 -8.4009003e-006  1.7667518e-003 
 2.0000000e+001  5.3838348e-001  1.0000000e+000 -1.8123994e-002  1.8454311e-002  0.0000000e+000  1.8935335e-002  1.8291989e-003 
 2.0000000e+001  6.1131215e-001  1.0000000e+000 -7.1754444e-006 -8.0821828e-006  0.0000000e+000 -7.8591906e-006  5.5872407e-003 
 2.0000000e+001  6.7694795e-001  1.0000000e+000 -1.5277478e-002  2.0996623e-002  0.0000000e+000  2.1501413e-002  9.1522215e-003 
 2.0000000e+001  7.3602021e-001  1.0000000e+000 -3.5623891e-006 -6.4487153e-006  0.0000000e+000 -6.3133421e-006  1.2515039e-002 
 2.0000000e+001  7.8918511e-001  1.0000000e+000 -1.2181574e-002  2.3271065e-002  0.0000000e+000  2.3733272e-002  1.5626330e-002 
 2.0000000e+001  8.3703363e-001  1.0000000e+000  2.2456177e-006 -4.1416383e-006  0.0000000e+000 -4.2319166e-006  1.8454313e-002 
 2.0000000e+001  8.8009727e-001  1.0000000e+000 -8.8729747e-003  2.5304804e-002  0.0000000e+000  2.5670415e-002  2.0996625e-002 
 2.0000000e+001  9.1885448e-001  1.0000000e+000  9.0932390e-006 -1.4565965e-006  0.0000000e+000 -1.8723896e-006  2.3271065e-002 
 2.0000000e+001  9.5373595e-001  1.0000000e+000 -5.3994451e-003  2.7697474e-002  0.0000000e+000  2.7923225e-002  2.5304804e-002 
 2.0000000e+001  9.8512936e-001  1.0000000e+000  1.4305527e-005  2.7853396e-002  0.0000000e+000  2.7818964e-002  2.7697474e-002 
 2.0000000e+001  1.0000000e+000  1.0000000e+000 -1.7666939e-003 -1.0754032e-006  0.0000000e+000  8.7150421e-005  2.7853396e-002 
Zone i=62, j=1, k=2
 0.0000000e+000  0.0000000e+000  0.0000000e+000  0.0000000e+000  2.8025969e-045  0.0000000e+000  0.0000000e+000  3.9588964e-001 
 1.2291715e-002  0.0000000e+000  0.0000000e+000 -1.7630227e-037  7.6931286e-043  0.0000000e+000  7.6931286e-043  3.8257852e-001 
 3.7736509e-002  0.0000000e+000  0.0000000e+000  2.2958874e-041  2.7241242e-041  0.0000000e+000  2.7241242e-041  3.5502347e-001 
 6.4963534e-002  0.0000000e+000  0.0000000e+000 -1.0  2.8025969e-045  0.0000000e+000 -1.0  3.1516275e-001 
 9.4095588e-002  0.0000000e+000  0.0000000e+000  0.0000000e+000  0.0000000e+000  0.0000000e+000  0.0000000e+000  2.6982892e-001 
 1.2526625e-001  0.0000000e+000  0.0000000e+000 -1.0  4.5906538e-041  0.0000000e+000 -1.0  2.2525704e-001 
 1.5861896e-001  0.0000000e+000  0.0000000e+000  1.7936620e-043 -1.7536024e-037  0.0000000e+000 -1.7536024e-037  1.8423474e-001 
 1.9430619e-001  0.0000000e+000  0.0000000e+000 -1.4591665e-039  1.7936620e-043  0.0000000e+000  1.7936620e-043  1.4942375e-001 
 2.3249130e-001  0.0000000e+000  0.0000000e+000  7.6931286e-043 -1.4583369e-039  0.0000000e+000 -1.4583369e-039  1.2243430e-001 
 2.7334976e-001  0.0000000e+000  0.0000000e+000 -1.7630227e-037  7.6931286e-043  0.0000000e+000  7.6931286e-043  1.0321736e-001 
 3.1706923e-001  0.0000000e+000  0.0000000e+000  0.0000000e+000  0.0000000e+000  0.0000000e+000  0.0000000e+000  9.0460099e-002 
 3.6384889e-001  0.0000000e+000  0.0000000e+000 -1.0  7.6931286e-043  0.0000000e+000 -1.0  8.2305357e-002 
 4.1390228e-001  0.0000000e+000  0.0000000e+000  0.0000000e+000  0.0000000e+000  0.0000000e+000  0.0000000e+000  7.7015966e-002 
 4.6745992e-001  0.0000000e+000  0.0000000e+000 -1.0  4.5907939e-041  0.0000000e+000 -1.0  7.3259212e-002 
 5.2476656e-001  0.0000000e+000  0.0000000e+000  7.6931286e-043  0.0000000e+000  0.0000000e+000  0.0000000e+000  7.0184901e-002 
 5.8608472e-001  0.0000000e+000  0.0000000e+000 -1.0 -1.0  0.0000000e+000 -1.0  6.7373484e-002 
 6.5169525e-001  0.0000000e+000  0.0000000e+000  1.7936620e-043 -1.7526015e-037  0.0000000e+000 -1.7526015e-037  6.4692974e-002 
 7.2189790e-001  0.0000000e+000  0.0000000e+000 -1.0  7.6931286e-043  0.0000000e+000 -1.0  6.2152550e-002 
 7.9701531e-001  0.0000000e+000  0.0000000e+000  2.2958874e-041  2.7241242e-041  0.0000000e+000  2.7241242e-041  5.9786454e-002 
 8.7739104e-001  0.0000000e+000  0.0000000e+000  0.0000000e+000  2.2958874e-041  0.0000000e+000  2.2958874e-041  5.7620738e-002 
 9.6339333e-001  0.0000000e+000  0.0000000e+000  0.0000000e+000  2.9387429e-039  0.0000000e+000  2.9387429e-039  5.5646345e-002 
 1.0554160e+000  0.0000000e+000  0.0000000e+000  0.0000000e+000  2.0873742e-041  0.0000000e+000  2.0873742e-041  5.3843006e-002 
 1.1538795e+000  0.0000000e+000  0.0000000e+000  0.0000000e+000  1.2473985e+002  0.0000000e+000  1.2473985e+002  5.2187495e-002 
 1.2592361e+000  0.0000000e+000  0.0000000e+000  0.0000000e+000  1.4012985e-045  0.0000000e+000  1.4012985e-045  5.0655384e-002 
 1.3719671e+000  0.0000000e+000  0.0000000e+000  0.0000000e+000  2.9387429e-039  0.0000000e+000  2.9387429e-039  4.9227100e-002 
 1.4925885e+000  0.0000000e+000  0.0000000e+000  0.0000000e+000  2.0873742e-041  0.0000000e+000  2.0873742e-041  4.7889438e-002 
 1.6216545e+000  0.0000000e+000  0.0000000e+000  0.0000000e+000  1.2473985e+002  0.0000000e+000  1.2473985e+002  4.6633907e-002 
 1.7597550e+000  0.0000000e+000  0.0000000e+000  0.0000000e+000  5.6051939e-045  0.0000000e+000  5.6051939e-045  4.5450322e-002 
 1.9075224e+000  0.0000000e+000  0.0000000e+000  0.0000000e+000  4.4841551e-044  0.0000000e+000  4.4841551e-044  4.4336691e-002 
 2.0656340e+000  0.0000000e+000  0.0000000e+000  0.0000000e+000  0.0000000e+000  0.0000000e+000  0.0000000e+000  4.3283530e-002 
 2.2348135e+000  0.0000000e+000  0.0000000e+000  0.0000000e+000  0.0000000e+000  0.0000000e+000  0.0000000e+000  4.2285681e-002 
 2.4158354e+000  0.0000000e+000  0.0000000e+000  0.0000000e+000  4.2038954e-045  0.0000000e+000  4.2038954e-045  4.1341063e-002 
 2.6095285e+000  0.0000000e+000  0.0000000e+000  0.0000000e+000  5.2666538e-036  0.0000000e+000  5.2666538e-036  4.0446132e-002 
 2.8167806e+000  0.0000000e+000  0.0000000e+000  0.0000000e+000  0.0000000e+000  0.0000000e+000  0.0000000e+000  3.9596893e-002 
 3.0385399e+000  0.0000000e+000  0.0000000e+000  0.0000000e+000  1.6591374e-042  0.0000000e+000  1.6591374e-042  3.8791157e-002 
 3.2758224e+000  0.0000000e+000  0.0000000e+000  0.0000000e+000  9.1835636e-040  0.0000000e+000  9.1835636e-040  3.8025573e-002 
 3.5297146e+000  0.0000000e+000  0.0000000e+000  0.0000000e+000  0.0000000e+000  0.0000000e+000  0.0000000e+000  3.7299082e-002 
 3.8013785e+000  0.0000000e+000  0.0000000e+000  0.0000000e+000  5.6051939e-045  0.0000000e+000  5.6051939e-045  3.6607906e-002 
 4.0920601e+000  0.0000000e+000  0.0000000e+000  0.0000000e+000  0.0000000e+000  0.0000000e+000  0.0000000e+000  3.5953101e-002 
 4.4030900e+000  0.0000000e+000  0.0000000e+000  0.0000000e+000  1.6530403e-039  0.0000000e+000  1.6530403e-039  3.5328850e-002 
 4.7358913e+000  0.0000000e+000  0.0000000e+000  0.0000000e+000  4.4841551e-044  0.0000000e+000  4.4841551e-044  3.4735899e-002 
 5.0919890e+000  0.0000000e+000  0.0000000e+000  0.0000000e+000  4.2038954e-045  0.0000000e+000  4.2038954e-045  3.4171026e-002 
 5.4730139e+000  0.0000000e+000  0.0000000e+000  0.0000000e+000  2.8025969e-045  0.0000000e+000  2.8025969e-045  3.3636034e-002 
 5.8807087e+000  0.0000000e+000  0.0000000e+000  0.0000000e+000 -1.0  0.0000000e+000 -1.0  3.3126120e-002 
 6.3169422e+000  0.0000000e+000  0.0000000e+000  0.0000000e+000  0.0000000e+000  0.0000000e+000  0.0000000e+000  3.2644071e-002 
 6.7837143e+000  0.0000000e+000  0.0000000e+000  0.0000000e+000  0.0000000e+000  0.0000000e+000  0.0000000e+000  3.2185044e-002 
 7.2831593e+000  0.0000000e+000  0.0000000e+000  0.0000000e+000  0.0000000e+000  0.0000000e+000  0.0000000e+000  3.1752106e-002 
 7.8175659e+000  0.0000000e+000  0.0000000e+000  0.0000000e+000  7.6931286e-043  0.0000000e+000  7.6931286e-043  3.1340733e-002 
 8.3893795e+000  0.0000000e+000  0.0000000e+000  0.0000000e+000 -1.4582024e-039  0.0000000e+000 -1.4582024e-039  3.0954154e-002 
 9.0012217e+000  0.0000000e+000  0.0000000e+000  0.0000000e+000  7.6931286e-043  0.0000000e+000  7.6931286e-043  3.0588046e-002 
 9.6558924e+000  0.0000000e+000  0.0000000e+000  0.0000000e+000 -1.7635698e-037  0.0000000e+000 -1.7635698e-037  3.0246083e-002 
 1.0356388e+001  0.0000000e+000  0.0000000e+000  0.0000000e+000  0.0000000e+000  0.0000000e+000  0.0000000e+000  2.9923996e-002 
 1.1105920e+001  0.0000000e+000  0.0000000e+000  0.0000000e+000  0.0000000e+000  0.0000000e+000  0.0000000e+000  2.9625617e-002 
 1.1907920e+001  0.0000000e+000  0.0000000e+000  0.0000000e+000  4.5907939e-041  0.0000000e+000  4.5907939e-041  2.9347332e-002 
 1.2766060e+001  0.0000000e+000  0.0000000e+000  0.0000000e+000  1.4012985e-045  0.0000000e+000  1.4012985e-045  2.9091639e-002 
 1.3684270e+001  0.0000000e+000  0.0000000e+000  0.0000000e+000  0.0000000e+000  0.0000000e+000  0.0000000e+000  2.8858189e-002 
 1.4666756e+001  0.0000000e+000  0.0000000e+000  0.0000000e+000  0.0000000e+000  0.0000000e+000  0.0000000e+000  2.8643206e-002 
 1.5718015e+001  0.0000000e+000  0.0000000e+000  0.0000000e+000  1.7936620e-043  0.0000000e+000  1.7936620e-043  2.8456260e-002 
 1.6842865e+001  0.0000000e+000  0.0000000e+000  0.0000000e+000 -1.4591889e-039  0.0000000e+000 -1.4591889e-039  2.8274955e-002 
 1.8046452e+001  0.0000000e+000  0.0000000e+000  0.0000000e+000  7.6931286e-043  0.0000000e+000  7.6931286e-043  2.8149020e-002 
 1.9334295e+001  0.0000000e+000  0.0000000e+000  0.0000000e+000  2.9387429e-039  0.0000000e+000  2.9387429e-039  2.7956216e-002 
 2.0000000e+001  0.0000000e+000  0.0000000e+000  0.0000000e+000  0.0000000e+000  0.0000000e+000  0.0000000e+000  2.7856553e-002 
 0.0000000e+000  0.0000000e+000  1.0000000e+000  3.8944435e-001  4.1341033e-002  0.0000000e+000  0.0000000e+000  3.9588964e-001 
 1.2291715e-002  0.0000000e+000  1.0000000e+000  7.1865097e-002 -5.0968607e-005  0.0000000e+000 -5.0968607e-005  3.8257852e-001 
 3.7736509e-002  0.0000000e+000  1.0000000e+000  3.7521160e-001  4.0446110e-002  0.0000000e+000  4.0446110e-002  3.5502347e-001 
 6.4963534e-002  0.0000000e+000  1.0000000e+000  7.4716635e-002 -4.4086639e-005  0.0000000e+000 -4.4086639e-005  3.1516275e-001 
 9.4095588e-002  0.0000000e+000  1.0000000e+000  3.4574869e-001  3.9596874e-002  0.0000000e+000  3.9596874e-002  2.6982892e-001 
 1.2526625e-001  0.0000000e+000  1.0000000e+000  8.0619544e-002 -3.8203423e-005  0.0000000e+000 -3.8203423e-005  2.2525704e-001 
 1.5861896e-001  0.0000000e+000  1.0000000e+000  3.0655763e-001  3.8791146e-002  0.0000000e+000  3.8791146e-002  1.8423474e-001 
 1.9430619e-001  0.0000000e+000  1.0000000e+000  7.3143467e-002 -3.3319775e-005  0.0000000e+000 -3.3319775e-005  1.4942375e-001 
 2.3249130e-001  0.0000000e+000  1.0000000e+000  2.6307079e-001  3.8025562e-002  0.0000000e+000  3.8025562e-002  1.2243430e-001 
 2.7334976e-001  0.0000000e+000  1.0000000e+000  6.0011659e-002 -2.8811777e-005  0.0000000e+000 -2.8811777e-005  1.0321736e-001 
 3.1706923e-001  0.0000000e+000  1.0000000e+000  2.2069058e-001  3.7299074e-002  0.0000000e+000  3.7299074e-002  9.0460099e-002 
 3.6384889e-001  0.0000000e+000  1.0000000e+000  4.5126490e-002 -2.5145519e-005  0.0000000e+000 -2.5145519e-005  8.2305357e-002 
 4.1390228e-001  0.0000000e+000  1.0000000e+000  1.8185870e-001  3.6607899e-002  0.0000000e+000  3.6607899e-002  7.7015966e-002 
 4.6745992e-001  0.0000000e+000  1.0000000e+000  2.9493295e-002 -2.2024909e-005  0.0000000e+000 -2.2024909e-005  7.3259212e-002 
 5.2476656e-001  0.0000000e+000  1.0000000e+000  1.4858940e-001  3.5953097e-002  0.0000000e+000  3.5953097e-002  7.0184901e-002 
 5.8608472e-001  0.0000000e+000  1.0000000e+000  1.5768478e-002 -1.9273575e-005  0.0000000e+000 -1.9273575e-005  6.7373484e-002 
 6.5169525e-001  0.0000000e+000  1.0000000e+000  1.2230620e-001  3.5328846e-002  0.0000000e+000  3.5328846e-002  6.4692974e-002 
 7.2189790e-001  0.0000000e+000  1.0000000e+000  5.5994638e-003 -1.6703339e-005  0.0000000e+000 -1.6703339e-005  6.2152550e-002 
 7.9701531e-001  0.0000000e+000  1.0000000e+000  1.0321427e-001  3.4735899e-002  0.0000000e+000  3.4735899e-002  5.9786454e-002 
 8.7739104e-001  0.0000000e+000  1.0000000e+000 -7.9850532e-004 -1.4715082e-005  0.0000000e+000 -1.4715082e-005  5.7620738e-002 
 9.6339333e-001  0.0000000e+000  1.0000000e+000  9.0374872e-002  3.4171026e-002  0.0000000e+000  3.4171026e-002  5.5646345e-002 
 1.0554160e+000  0.0000000e+000  1.0000000e+000 -3.9257105e-003 -1.2837722e-005  0.0000000e+000 -1.2837722e-005  5.3843006e-002 
 1.1538795e+000  0.0000000e+000  1.0000000e+000  8.2175210e-002  3.3636034e-002  0.0000000e+000  3.3636034e-002  5.2187495e-002 
 1.2592361e+000  0.0000000e+000  1.0000000e+000 -4.6267831e-003 -1.1380018e-005  0.0000000e+000 -1.1380018e-005  5.0655384e-002 
 1.3719671e+000  0.0000000e+000  1.0000000e+000  7.6909795e-002  3.3126116e-002  0.0000000e+000  3.3126116e-002  4.9227100e-002 
 1.4925885e+000  0.0000000e+000  1.0000000e+000 -4.0425961e-003 -9.9013141e-006  0.0000000e+000 -9.9013141e-006  4.7889438e-002 
 1.6216545e+000  0.0000000e+000  1.0000000e+000  7.3193818e-002  3.2644071e-002  0.0000000e+000  3.2644071e-002  4.6633907e-002 
 1.7597550e+000  0.0000000e+000  1.0000000e+000 -3.0947551e-003 -8.7732997e-006  0.0000000e+000 -8.7732997e-006  4.5450322e-002 
 1.9075224e+000  0.0000000e+000  1.0000000e+000  7.0150465e-002  3.2185040e-002  0.0000000e+000  3.2185040e-002  4.4336691e-002 
 2.0656340e+000  0.0000000e+000  1.0000000e+000 -2.1981145e-003 -7.6283191e-006  0.0000000e+000 -7.6283191e-006  4.3283530e-002 
 2.2348135e+000  0.0000000e+000  1.0000000e+000  6.7356169e-002  3.1752102e-002  0.0000000e+000  3.1752102e-002  4.2285681e-002 
 2.4158354e+000  0.0000000e+000  1.0000000e+000 -1.5274093e-003 -6.6890857e-006  0.0000000e+000 -6.6890857e-006  4.1341063e-002 
 2.6095285e+000  0.0000000e+000  1.0000000e+000  6.4683951e-002  3.1340733e-002  0.0000000e+000  3.1340733e-002  4.0446132e-002 
 2.8167806e+000  0.0000000e+000  1.0000000e+000 -1.0805535e-003 -5.8480477e-006  0.0000000e+000 -5.8480477e-006  3.9596893e-002 
 3.0385399e+000  0.0000000e+000  1.0000000e+000  6.2147498e-002  3.0954156e-002  0.0000000e+000  3.0954156e-002  3.8791157e-002 
 3.2758224e+000  0.0000000e+000  1.0000000e+000 -7.9249003e-004 -5.1126090e-006  0.0000000e+000 -5.1126090e-006  3.8025573e-002 
 3.5297146e+000  0.0000000e+000  1.0000000e+000  5.9783425e-002  3.0588044e-002  0.0000000e+000  3.0588044e-002  3.7299082e-002 
 3.8013785e+000  0.0000000e+000  1.0000000e+000 -6.0168281e-004 -4.3893283e-006  0.0000000e+000 -4.3893283e-006  3.6607906e-002 
 4.0920601e+000  0.0000000e+000  1.0000000e+000  5.7618819e-002  3.0246081e-002  0.0000000e+000  3.0246081e-002  3.5953101e-002 
 4.4030900e+000  0.0000000e+000  1.0000000e+000 -4.6998193e-004 -3.8457893e-006  0.0000000e+000 -3.8457893e-006  3.5328850e-002 
 4.7358913e+000  0.0000000e+000  1.0000000e+000  5.5645104e-002  2.9923994e-002  0.0000000e+000  2.9923994e-002  3.4735899e-002 
 5.0919890e+000  0.0000000e+000  1.0000000e+000 -3.7113208e-004 -3.3271124e-006  0.0000000e+000 -3.3271124e-006  3.4171026e-002 
 5.4730139e+000  0.0000000e+000  1.0000000e+000  5.3842183e-002  2.9625617e-002  0.0000000e+000  2.9625617e-002  3.3636034e-002 
 5.8807087e+000  0.0000000e+000  1.0000000e+000 -2.9793018e-004 -2.8585441e-006  0.0000000e+000 -2.8585441e-006  3.3126120e-002 
 6.3169422e+000  0.0000000e+000  1.0000000e+000  5.2186936e-002  2.9347332e-002  0.0000000e+000  2.9347332e-002  3.2644071e-002 
 6.7837143e+000  0.0000000e+000  1.0000000e+000 -2.4089632e-004 -2.4610601e-006  0.0000000e+000 -2.4610601e-006  3.2185044e-002 
 7.2831593e+000  0.0000000e+000  1.0000000e+000  5.0655000e-002  2.9091638e-002  0.0000000e+000  2.9091638e-002  3.1752106e-002 
 7.8175659e+000  0.0000000e+000  1.0000000e+000 -1.9648903e-004 -2.0739451e-006  0.0000000e+000 -2.0739451e-006  3.1340733e-002 
 8.3893795e+000  0.0000000e+000  1.0000000e+000  4.9226832e-002  2.8858189e-002  0.0000000e+000  2.8858189e-002  3.0954154e-002 
 9.0012217e+000  0.0000000e+000  1.0000000e+000 -1.6185470e-004 -1.8050011e-006  0.0000000e+000 -1.8050011e-006  3.0588046e-002 
 9.6558924e+000  0.0000000e+000  1.0000000e+000  4.7889248e-002  2.8643206e-002  0.0000000e+000  2.8643206e-002  3.0246083e-002 
 1.0356388e+001  0.0000000e+000  1.0000000e+000 -1.3463601e-004 -1.4641946e-006  0.0000000e+000 -1.4641946e-006  2.9923996e-002 
 1.1105920e+001  0.0000000e+000  1.0000000e+000  4.6633773e-002  2.8456260e-002  0.0000000e+000  2.8456260e-002  2.9625617e-002 
 1.1907920e+001  0.0000000e+000  1.0000000e+000 -1.1291019e-004 -1.2935980e-006  0.0000000e+000 -1.2935980e-006  2.9347332e-002 
 1.2766060e+001  0.0000000e+000  1.0000000e+000  4.5450225e-002  2.8274955e-002  0.0000000e+000  2.8274955e-002  2.9091639e-002 
 1.3684270e+001  0.0000000e+000  1.0000000e+000 -9.5215561e-005 -9.2939683e-007  0.0000000e+000 -9.2939683e-007  2.8858189e-002 
 1.4666756e+001  0.0000000e+000  1.0000000e+000  4.4336617e-002  2.8149020e-002  0.0000000e+000  2.8149020e-002  2.8643206e-002 
 1.5718015e+001  0.0000000e+000  1.0000000e+000 -8.1004211e-005 -1.0774119e-006  0.0000000e+000 -1.0774119e-006  2.8456260e-002 
 1.6842865e+001  0.0000000e+000  1.0000000e+000  4.3283474e-002  2.7956218e-002  0.0000000e+000  2.7956218e-002  2.8274955e-002 
 1.8046452e+001  0.0000000e+000  1.0000000e+000 -6.8749367e-005 -7.3604434e-007  0.0000000e+000 -7.3604434e-007  2.8149020e-002 
 1.9334295e+001  0.0000000e+000  1.0000000e+000  4.2285640e-002  2.7856555e-002  0.0000000e+000  2.7856555e-002  2.7956216e-002 
 2.0000000e+001  0.0000000e+000  1.0000000e+000 -5.9201360e-005 -5.5958674e-007  0.0000000e+000 -5.5958674e-007  2.7856553e-002 
Zone i=62, j=1, k=2
 0.0000000e+000  1.0000000e+000  0.0000000e+000  0.0000000e+000  0.0000000e+000  0.0000000e+000  0.0000000e+000  4.1818905e-001 
 1.2291715e-002  1.0000000e+000  0.0000000e+000  0.0000000e+000  0.0000000e+000  0.0000000e+000  0.0000000e+000  4.0228769e-001 
 3.7736509e-002  1.0000000e+000  0.0000000e+000  0.0000000e+000  0.0000000e+000  0.0000000e+000  0.0000000e+000  3.6937067e-001 
 6.4963534e-002  1.0000000e+000  0.0000000e+000  0.0000000e+000  0.0000000e+000  0.0000000e+000  0.0000000e+000  3.2274476e-001 
 9.4095588e-002  1.0000000e+000  0.0000000e+000  0.0000000e+000  0.0000000e+000  0.0000000e+000  0.0000000e+000  2.7109358e-001 
 1.2526625e-001  1.0000000e+000  0.0000000e+000  0.0000000e+000  1.1435273e-034  0.0000000e+000  1.4213456e-035  2.2200961e-001 
 1.5861896e-001  1.0000000e+000  0.0000000e+000  0.0000000e+000  0.0000000e+000  0.0000000e+000  0.0000000e+000  1.7849569e-001 
 1.9430619e-001  1.0000000e+000  0.0000000e+000  0.0000000e+000  0.0000000e+000  0.0000000e+000  0.0000000e+000  1.4343840e-001 
 2.3249130e-001  1.0000000e+000  0.0000000e+000  0.0000000e+000  0.0000000e+000  0.0000000e+000  0.0000000e+000  1.1781473e-001 
 2.7334976e-001  1.0000000e+000  0.0000000e+000  0.0000000e+000  0.0000000e+000  0.0000000e+000  0.0000000e+000  1.0058751e-001 
 3.1706923e-001  1.0000000e+000  0.0000000e+000  0.0000000e+000  0.0000000e+000  0.0000000e+000  0.0000000e+000  8.9597009e-002 
 3.6384889e-001  1.0000000e+000  0.0000000e+000  0.0000000e+000  0.0000000e+000  0.0000000e+000  0.0000000e+000  8.2634404e-002 
 4.1390228e-001  1.0000000e+000  0.0000000e+000  0.0000000e+000  0.0000000e+000  0.0000000e+000  0.0000000e+000  7.7922277e-002 
 4.6745992e-001  1.0000000e+000  0.0000000e+000  0.0000000e+000  0.0000000e+000  0.0000000e+000  0.0000000e+000  7.4263670e-002 
 5.2476656e-001  1.0000000e+000  0.0000000e+000  0.0000000e+000  0.0000000e+000  0.0000000e+000  0.0000000e+000  7.1030989e-002 
 5.8608472e-001  1.0000000e+000  0.0000000e+000  0.0000000e+000  0.0000000e+000  0.0000000e+000  0.0000000e+000  6.7989707e-002 
 6.5169525e-001  1.0000000e+000  0.0000000e+000  0.0000000e+000  0.0000000e+000  0.0000000e+000  0.0000000e+000  6.5118909e-002 
 7.2189790e-001  1.0000000e+000  0.0000000e+000  0.0000000e+000  0.0000000e+000  0.0000000e+000  0.0000000e+000  6.2453609e-002 
 7.9701531e-001  1.0000000e+000  0.0000000e+000  0.0000000e+000  0.0000000e+000  0.0000000e+000  0.0000000e+000  6.0025364e-002 
 8.7739104e-001  1.0000000e+000  0.0000000e+000  0.0000000e+000  0.0000000e+000  0.0000000e+000  0.0000000e+000  5.7825729e-002 