Variables = "x","y","z", "Shear Stress_x", "Shear Stress_y", "Shear Stress_z", "Shear Stress_circ", "Skin Friction"
Zone i=1, j=22, k=2
 0.0000000e+000  0.0000000e+000  0.0000000e+000  0.0000000e+000  0.0000000e+000  0.0000000e+000  0.0000000e+000  1.3383045e+000 
 0.0000000e+000  1.5686335e-002  0.0000000e+000  2.8025969e-045  2.1591207e-041  0.0000000e+000 -2.8025969e-045 -3.0858922e-001 
 0.0000000e+000  4.8627645e-002  0.0000000e+000  0.0000000e+000  0.0000000e+000  0.0000000e+000  0.0000000e+000  1.9055162e-001 
 0.0000000e+000  8.4863111e-002  0.0000000e+000  2.8025969e-045  2.1591207e-041  0.0000000e+000 -2.8025969e-045  6.6419162e-002 
 0.0000000e+000  1.2472210e-001  0.0000000e+000  0.0000000e+000  0.0000000e+000  0.0000000e+000  0.0000000e+000  2.7906025e-002 
 0.0000000e+000  1.6856700e-001  0.0000000e+000  2.8025969e-045  2.1591207e-041  0.0000000e+000 -2.8025969e-045  1.5684277e-002 
 0.0000000e+000  2.1679640e-001  0.0000000e+000  0.0000000e+000  0.0000000e+000  0.0000000e+000  0.0000000e+000  9.8673720e-003 
 0.0000000e+000  2.6984873e-001  0.0000000e+000  2.8025969e-045  2.1591207e-041  0.0000000e+000 -2.8025969e-045  6.3787876e-003 
 0.0000000e+000  3.2820630e-001  0.0000000e+000  0.0000000e+000  0.0000000e+000  0.0000000e+000  0.0000000e+000  4.0022032e-003 
 0.0000000e+000  3.9239961e-001  0.0000000e+000  2.8025969e-045  2.1591207e-041  0.0000000e+000 -2.8025969e-045  2.2223908e-003 
 0.0000000e+000  4.6301234e-001  0.0000000e+000  0.0000000e+000  0.0000000e+000  0.0000000e+000  0.0000000e+000  7.2683051e-004 
 0.0000000e+000  5.3838348e-001  0.0000000e+000  2.8025969e-045  2.1591207e-041  0.0000000e+000 -2.8025969e-045  7.4408326e-004 
 0.0000000e+000  6.1131215e-001  0.0000000e+000  0.0000000e+000  0.0000000e+000  0.0000000e+000  0.0000000e+000  2.2914389e-003 
 0.0000000e+000  6.7694795e-001  0.0000000e+000  2.8025969e-045  2.1591207e-041  0.0000000e+000 -2.8025969e-045  4.1474300e-003 
 0.0000000e+000  7.3602021e-001  0.0000000e+000  0.0000000e+000  0.0000000e+000  0.0000000e+000  0.0000000e+000  6.6433600e-003 
 0.0000000e+000  7.8918511e-001  0.0000000e+000  2.8025969e-045  2.1591207e-041  0.0000000e+000 -2.8025969e-045  1.0340957e-002 
 0.0000000e+000  8.3703363e-001  0.0000000e+000  0.0000000e+000  0.0000000e+000  0.0000000e+000  0.0000000e+000  1.6615052e-002 
 0.0000000e+000  8.8009727e-001  0.0000000e+000  2.8025969e-045  2.1591207e-041  0.0000000e+000 -2.8025969e-045  3.0251479e-002 
 0.0000000e+000  9.1885448e-001  0.0000000e+000  0.0000000e+000  0.0000000e+000  0.0000000e+000  0.0000000e+000  7.4319012e-002 
 0.0000000e+000  9.5373595e-001  0.0000000e+000  2.8025969e-045  2.1591207e-041  0.0000000e+000 -2.8025969e-045  2.0798200e-001 
 0.0000000e+000  9.8512936e-001  0.0000000e+000  0.0000000e+000  0.0000000e+000  0.0000000e+000  0.0000000e+000 -3.2461283e-001 
 0.0000000e+000  1.0000000e+000  0.0000000e+000  2.8025969e-045  2.1591207e-041  0.0000000e+000 -2.8025969e-045  1.4133451e+000 
 0.0000000e+000  0.0000000e+000  1.0000000e+000  1.2533898e+000  1.3323023e-004  0.0000000e+000  0.0000000e+000  1.3383045e+000 
 0.0000000e+000  1.5686335e-002  1.0000000e+000  4.6920958e-001 -7.3205843e-004  0.0000000e+000 -4.6920958e-001 -3.0858922e-001 
 0.0000000e+000  4.8627645e-002  1.0000000e+000 -1.4407960e-001  1.5517497e-004  0.0000000e+000  1.4407960e-001  1.9055162e-001 
 0.0000000e+000  8.4863111e-002  1.0000000e+000  2.7288893e-001 -2.2861785e-003  0.0000000e+000 -2.7288893e-001  6.6419162e-002 
 0.0000000e+000  1.2472210e-001  1.0000000e+000  9.3609743e-002  2.0158422e-004  0.0000000e+000 -9.3609743e-002  2.7906025e-002 
 0.0000000e+000  1.6856700e-001  1.0000000e+000  1.6597331e-001 -4.1425279e-003  0.0000000e+000 -1.6597331e-001  1.5684277e-002 
 0.0000000e+000  2.1679640e-001  1.0000000e+000  2.1221522e-002  2.7497782e-004  0.0000000e+000 -2.1221522e-002  9.8673720e-003 
 0.0000000e+000  2.6984873e-001  1.0000000e+000  6.2937684e-002 -6.6376668e-003  0.0000000e+000 -6.2937684e-002  6.3787876e-003 
 0.0000000e+000  3.2820630e-001  1.0000000e+000  2.9029071e-003  3.4024060e-004  0.0000000e+000 -2.9029071e-003  4.0022032e-003 
 0.0000000e+000  3.9239961e-001  1.0000000e+000  2.7754627e-002 -1.0335358e-002  0.0000000e+000 -2.7754627e-002  2.2223908e-003 
 0.0000000e+000  4.6301234e-001  1.0000000e+000  5.7173159e-004  6.3397223e-004  0.0000000e+000 -5.7173159e-004  7.2683051e-004 
 0.0000000e+000  5.3838348e-001  1.0000000e+000  1.5673853e-002 -1.6602954e-002  0.0000000e+000 -1.5673853e-002  7.4408326e-004 
 0.0000000e+000  6.1131215e-001  1.0000000e+000  3.3831372e-004  3.5915894e-003  0.0000000e+000 -3.3831372e-004  2.2914389e-003 
 0.0000000e+000  6.7694795e-001  1.0000000e+000  9.8615708e-003 -3.0037519e-002  0.0000000e+000 -9.8615708e-003  4.1474300e-003 
 0.0000000e+000  7.3602021e-001  1.0000000e+000  2.6801613e-004  2.5679193e-002  0.0000000e+000 -2.6801613e-004  6.6433600e-003 
 0.0000000e+000  7.8918511e-001  1.0000000e+000  6.3731549e-003 -6.9741629e-002  0.0000000e+000 -6.3731549e-003  1.0340957e-002 
 0.0000000e+000  8.3703363e-001  1.0000000e+000  1.9797997e-004  1.0361066e-001  0.0000000e+000 -1.9797997e-004  1.6615052e-002 
 0.0000000e+000  8.8009727e-001  1.0000000e+000  3.9973035e-003 -1.8033674e-001  0.0000000e+000 -3.9973035e-003  3.0251479e-002 
 0.0000000e+000  9.1885448e-001  1.0000000e+000  1.5240849e-004 -1.6370946e-001  0.0000000e+000 -1.5240849e-004  7.4319012e-002 
 0.0000000e+000  9.5373595e-001  1.0000000e+000  2.2171587e-003 -2.8030822e-001  0.0000000e+000 -2.2171587e-003  2.0798200e-001 
 0.0000000e+000  9.8512936e-001  1.0000000e+000  1.3339733e-004  1.3175700e+000  0.0000000e+000 -1.3339733e-004 -3.2461283e-001 
 0.0000000e+000  1.0000000e+000  1.0000000e+000  7.1448425e-004 -5.1143026e-001  0.0000000e+000 -7.1448425e-004  1.4133451e+000 
Zone i=1, j=22, k=2
 2.0000000e+001  0.0000000e+000  0.0000000e+000  0.0000000e+000  7.6931286e-043  0.0000000e+000  7.6931286e-043  8.8458166e-002 
 2.0000000e+001  1.5686335e-002  0.0000000e+000  0.0000000e+000  2.9387429e-039  0.0000000e+000  2.9387420e-039  8.7054305e-002 
 2.0000000e+001  4.8627645e-002  0.0000000e+000  0.0000000e+000  7.6931286e-043  0.0000000e+000  7.6931058e-043  7.9891898e-002 
 2.0000000e+001  8.4863111e-002  0.0000000e+000  0.0000000e+000  2.9387429e-039  0.0000000e+000  2.9387164e-039  7.3451899e-002 
 2.0000000e+001  1.2472210e-001  0.0000000e+000  0.0000000e+000  7.6931286e-043  0.0000000e+000  7.6929790e-043  6.6368006e-002 
 2.0000000e+001  1.6856700e-001  0.0000000e+000  0.0000000e+000  2.9387429e-039  0.0000000e+000  2.9386385e-039  5.8575444e-002 
 2.0000000e+001  2.1679640e-001  0.0000000e+000  0.0000000e+000  7.6931286e-043  0.0000000e+000  7.6926766e-043  5.0003849e-002 
 2.0000000e+001  2.6984873e-001  0.0000000e+000  0.0000000e+000  2.9387429e-039  0.0000000e+000  2.9384754e-039  4.0575031e-002 
 2.0000000e+001  3.2820630e-001  0.0000000e+000  0.0000000e+000  7.6931286e-043  0.0000000e+000  7.6920929e-043  3.0203782e-002 
 2.0000000e+001  3.9239961e-001  0.0000000e+000  0.0000000e+000  2.9387429e-039  0.0000000e+000  2.9381774e-039  1.8795813e-002 
 2.0000000e+001  4.6301234e-001  0.0000000e+000  0.0000000e+000  7.6931286e-043  0.0000000e+000  7.6910678e-043  6.2476546e-003 
 2.0000000e+001  5.3838348e-001  0.0000000e+000  0.0000000e+000  2.9387429e-039  0.0000000e+000  2.9376787e-039  6.4483066e-003 
 2.0000000e+001  6.1131215e-001  0.0000000e+000  0.0000000e+000  7.6931286e-043  0.0000000e+000  7.6895374e-043  1.9420926e-002 
 2.0000000e+001  6.7694795e-001  0.0000000e+000  0.0000000e+000  2.9387429e-039  0.0000000e+000  2.9370609e-039  3.1096870e-002 
 2.0000000e+001  7.3602021e-001  0.0000000e+000  0.0000000e+000  7.6931286e-043  0.0000000e+000  7.6879244e-043  4.1605797e-002 
 2.0000000e+001  7.8918511e-001  0.0000000e+000  0.0000000e+000  2.9387429e-039  0.0000000e+000  2.9364577e-039  5.1064081e-002 
 2.0000000e+001  8.3703363e-001  0.0000000e+000  0.0000000e+000  7.6931286e-043  0.0000000e+000  7.6863999e-043  5.9576470e-002 
 2.0000000e+001  8.8009727e-001  0.0000000e+000  0.0000000e+000  2.9387429e-039  0.0000000e+000  2.9359017e-039  6.7237854e-002 
 2.0000000e+001  9.1885448e-001  0.0000000e+000  0.0000000e+000  7.6931286e-043  0.0000000e+000  7.6850223e-043  7.4132942e-002 
 2.0000000e+001  9.5373595e-001  0.0000000e+000  0.0000000e+000  2.9387429e-039  0.0000000e+000  2.9354072e-039  8.0338620e-002 
 2.0000000e+001  9.8512936e-001  0.0000000e+000  0.0000000e+000  7.6931286e-043  0.0000000e+000  7.6838130e-043  8.7814532e-002 
 2.0000000e+001  1.0000000e+000  0.0000000e+000  0.0000000e+000  2.9387429e-039  0.0000000e+000  2.9350763e-039  8.8453650e-002 
 2.0000000e+001  0.0000000e+000  1.0000000e+000  8.8458166e-002  1.5903262e-007  0.0000000e+000  1.5903262e-007  8.8458166e-002 
 2.0000000e+001  1.5686335e-002  1.0000000e+000 -2.9116535e-007  6.4483066e-003  0.0000000e+000  6.4483049e-003  8.7054305e-002 
 2.0000000e+001  4.8627645e-002  1.0000000e+000 -1.7718575e-008  1.0089263e-007  0.0000000e+000  1.0093541e-007  7.9891898e-002 
 2.0000000e+001  8.4863111e-002  1.0000000e+000 -8.7054305e-002  1.9420926e-002  0.0000000e+000  1.9790132e-002  7.3451899e-002 
 2.0000000e+001  1.2472210e-001  1.0000000e+000 -4.9519493e-008  2.5388159e-008  0.0000000e+000  2.5696468e-008  6.6368006e-002 
 2.0000000e+001  1.6856700e-001  1.0000000e+000 -7.9891898e-002  3.1096870e-002  0.0000000e+000  3.1769099e-002  5.8575444e-002 
 2.0000000e+001  2.1679640e-001  1.0000000e+000 -7.6122141e-008 -4.2666823e-008  0.0000000e+000 -4.1839215e-008  5.0003849e-002 
 2.0000000e+001  2.6984873e-001  1.0000000e+000 -7.3451899e-002  4.1605797e-002  0.0000000e+000  4.2592965e-002  4.0575031e-002 
 2.0000000e+001  3.2820630e-001  1.0000000e+000 -9.5726541e-008 -7.9503934e-008  0.0000000e+000 -7.7922540e-008  3.0203782e-002 
 2.0000000e+001  3.9239961e-001  1.0000000e+000 -6.6368006e-002  5.1064081e-002  0.0000000e+000  5.2356144e-002  1.8795813e-002 
 2.0000000e+001  4.6301234e-001  1.0000000e+000 -9.9426501e-008 -9.3306475e-008  0.0000000e+000 -9.0980313e-008  6.2476546e-003 
 2.0000000e+001  5.3838348e-001  1.0000000e+000 -5.8575440e-002  5.9576474e-002  0.0000000e+000  6.1131132e-002  6.4483066e-003 
 2.0000000e+001  6.1131215e-001  1.0000000e+000 -8.3218758e-008 -8.7476309e-008  0.0000000e+000 -8.4893030e-008  1.9420926e-002 
 2.0000000e+001  6.7694795e-001  1.0000000e+000 -5.0003849e-002  6.7237854e-002  0.0000000e+000  6.8890903e-002  3.1096870e-002 
 2.0000000e+001  7.3602021e-001  1.0000000e+000 -4.7704720e-008 -7.0494650e-008  0.0000000e+000 -6.8692568e-008  4.1605797e-002 
 2.0000000e+001  7.8918511e-001  1.0000000e+000 -4.0575031e-002  7.4132942e-002  0.0000000e+000  7.5675111e-002  5.1064081e-002 
 2.0000000e+001  8.3703363e-001  1.0000000e+000  2.1337035e-008 -4.5878195e-008  0.0000000e+000 -4.6730279e-008  5.9576470e-002 
 2.0000000e+001  8.8009727e-001  1.0000000e+000 -3.0203780e-002  8.0338620e-002  0.0000000e+000  8.1588776e-002  6.7237854e-002 
 2.0000000e+001  9.1885448e-001  1.0000000e+000  9.5733341e-008 -1.6865966e-008  0.0000000e+000 -2.1241811e-008  7.4132942e-002 
 2.0000000e+001  9.5373595e-001  1.0000000e+000 -1.8795811e-002  8.7814532e-002  0.0000000e+000  8.8610150e-002  8.0338620e-002 
 2.0000000e+001  9.8512936e-001  1.0000000e+000  1.5663760e-007  8.8453643e-002  0.0000000e+000  8.8346527e-002  8.7814532e-002 
 2.0000000e+001  1.0000000e+000  1.0000000e+000 -6.2476546e-003 -1.5988664e-006  0.0000000e+000  3.1039611e-004  8.8453650e-002 
Zone i=62, j=1, k=2
 0.0000000e+000  0.0000000e+000  0.0000000e+000  0.0000000e+000  2.8025969e-045  0.0000000e+000  0.0000000e+000  1.3383045e+000 
 1.2291715e-002  0.0000000e+000  0.0000000e+000 -1.7657580e-037  7.6931286e-043  0.0000000e+000  7.6931286e-043  1.2389439e+000 
 3.7736509e-002  0.0000000e+000  0.0000000e+000  2.2958874e-041  2.8138073e-041  0.0000000e+000  2.8138073e-041  1.0332600e+000 
 6.4963534e-002  0.0000000e+000  0.0000000e+000 -1.0  2.8025969e-045  0.0000000e+000 -1.0  7.8816038e-001 
 9.4095588e-002  0.0000000e+000  0.0000000e+000  0.0000000e+000  0.0000000e+000  0.0000000e+000  0.0000000e+000  5.8298433e-001 
 1.2526625e-001  0.0000000e+000  0.0000000e+000 -1.0  4.5906538e-041  0.0000000e+000 -1.0  4.3952075e-001 
 1.5861896e-001  0.0000000e+000  0.0000000e+000  1.7936620e-043 -1.0  0.0000000e+000 -1.0  3.4721389e-001 
 1.9430619e-001  0.0000000e+000  0.0000000e+000 -1.4591665e-039  1.7936620e-043  0.0000000e+000  1.7936620e-043  2.8975633e-001 
 2.3249130e-001  0.0000000e+000  0.0000000e+000  7.6931286e-043 -1.4583369e-039  0.0000000e+000 -1.4583369e-039  2.5310799e-001 
 2.7334976e-001  0.0000000e+000  0.0000000e+000 -1.7657580e-037  7.6931286e-043  0.0000000e+000  7.6931286e-043  2.2800756e-001 
 3.1706923e-001  0.0000000e+000  0.0000000e+000  0.0000000e+000  0.0000000e+000  0.0000000e+000  0.0000000e+000  2.0922156e-001 
 3.6384889e-001  0.0000000e+000  0.0000000e+000 -1.0  7.6931286e-043  0.0000000e+000 -1.0  1.9416545e-001 
 4.1390228e-001  0.0000000e+000  0.0000000e+000  0.0000000e+000  0.0000000e+000  0.0000000e+000  0.0000000e+000  1.8161583e-001 
 4.6745992e-001  0.0000000e+000  0.0000000e+000 -1.0  4.5907939e-041  0.0000000e+000 -1.0  1.7100306e-001 
 5.2476656e-001  0.0000000e+000  0.0000000e+000  7.6931286e-043  0.0000000e+000  0.0000000e+000  0.0000000e+000  1.6199069e-001 
 5.8608472e-001  0.0000000e+000  0.0000000e+000 -1.0 -1.0  0.0000000e+000 -1.0  1.5429102e-001 
 6.5169525e-001  0.0000000e+000  0.0000000e+000  1.7936620e-043 -1.7525872e-037  0.0000000e+000 -1.7525872e-037  1.4767110e-001 
 7.2189790e-001  0.0000000e+000  0.0000000e+000 -1.0  7.6931286e-043  0.0000000e+000 -1.0  1.4193721e-001 
 7.9701531e-001  0.0000000e+000  0.0000000e+000  2.2958874e-041  2.8138073e-041  0.0000000e+000  2.8138073e-041  1.3693072e-001 
 8.7739104e-001  0.0000000e+000  0.0000000e+000  0.0000000e+000  2.2958874e-041  0.0000000e+000  2.2958874e-041  1.3252357e-001 
 9.6339333e-001  0.0000000e+000  0.0000000e+000  0.0000000e+000  2.9387429e-039  0.0000000e+000  2.9387429e-039  1.2860532e-001 
 1.0554160e+000  0.0000000e+000  0.0000000e+000  0.0000000e+000  2.6938562e-041  0.0000000e+000  2.6938562e-041  1.2509169e-001 
 1.1538795e+000  0.0000000e+000  0.0000000e+000  0.0000000e+000  1.7687580e+001  0.0000000e+000  1.7687580e+001  1.2191363e-001 
 1.2592361e+000  0.0000000e+000  0.0000000e+000  0.0000000e+000  1.4012985e-045  0.0000000e+000  1.4012985e-045  1.1901507e-001 
 1.3719671e+000  0.0000000e+000  0.0000000e+000  0.0000000e+000  2.9387429e-039  0.0000000e+000  2.9387429e-039  1.1635703e-001 
 1.4925885e+000  0.0000000e+000  0.0000000e+000  0.0000000e+000  2.6938562e-041  0.0000000e+000  2.6938562e-041  1.1390017e-001 
 1.6216545e+000  0.0000000e+000  0.0000000e+000  0.0000000e+000  1.7687580e+001  0.0000000e+000  1.7687580e+001  1.1161723e-001 
 1.7597550e+000  0.0000000e+000  0.0000000e+000  0.0000000e+000  5.6051939e-045  0.0000000e+000  5.6051939e-045  1.0949311e-001 
 1.9075224e+000  0.0000000e+000  0.0000000e+000  0.0000000e+000  4.4841551e-044  0.0000000e+000  4.4841551e-044  1.0751250e-001 
 2.0656340e+000  0.0000000e+000  0.0000000e+000  0.0000000e+000  0.0000000e+000  0.0000000e+000  0.0000000e+000  1.0566358e-001 
 2.2348135e+000  0.0000000e+000  0.0000000e+000  0.0000000e+000  0.0000000e+000  0.0000000e+000  0.0000000e+000  1.0393765e-001 
 2.4158354e+000  0.0000000e+000  0.0000000e+000  0.0000000e+000  4.2038954e-045  0.0000000e+000  4.2038954e-045  1.0232714e-001 
 2.6095285e+000  0.0000000e+000  0.0000000e+000  0.0000000e+000  5.2666538e-036  0.0000000e+000  5.2666538e-036  1.0082541e-001 
 2.8167806e+000  0.0000000e+000  0.0000000e+000  0.0000000e+000  0.0000000e+000  0.0000000e+000  0.0000000e+000  9.9427342e-002 
 3.0385399e+000  0.0000000e+000  0.0000000e+000  0.0000000e+000  1.6591374e-042  0.0000000e+000  1.6591374e-042  9.8129109e-002 
 3.2758224e+000  0.0000000e+000  0.0000000e+000  0.0000000e+000  9.1835636e-040  0.0000000e+000  9.1835636e-040  9.6927576e-002 
 3.5297146e+000  0.0000000e+000  0.0000000e+000  0.0000000e+000  0.0000000e+000  0.0000000e+000  0.0000000e+000  9.5820241e-002 
 3.8013785e+000  0.0000000e+000  0.0000000e+000  0.0000000e+000  5.6051939e-045  0.0000000e+000  5.6051939e-045  9.4805062e-002 
 4.0920601e+000  0.0000000e+000  0.0000000e+000  0.0000000e+000  0.0000000e+000  0.0000000e+000  0.0000000e+000  9.3880355e-002 
 4.4030900e+000  0.0000000e+000  0.0000000e+000  0.0000000e+000  1.6530403e-039  0.0000000e+000  1.6530403e-039  9.3044467e-002 
 4.7358913e+000  0.0000000e+000  0.0000000e+000  0.0000000e+000  4.4841551e-044  0.0000000e+000  4.4841551e-044  9.2295595e-002 
 5.0919890e+000  0.0000000e+000  0.0000000e+000  0.0000000e+000  4.2038954e-045  0.0000000e+000  4.2038954e-045  9.1631219e-002 
 5.4730139e+000  0.0000000e+000  0.0000000e+000  0.0000000e+000  2.8025969e-045  0.0000000e+000  2.8025969e-045  9.1048643e-002 
 5.8807087e+000  0.0000000e+000  0.0000000e+000  0.0000000e+000 -1.0  0.0000000e+000 -1.0  9.0544015e-002 
 6.3169422e+000  0.0000000e+000  0.0000000e+000  0.0000000e+000  0.0000000e+000  0.0000000e+000  0.0000000e+000  9.0112902e-002 
 6.7837143e+000  0.0000000e+000  0.0000000e+000  0.0000000e+000  0.0000000e+000  0.0000000e+000  0.0000000e+000  8.9750223e-002 
 7.2831593e+000  0.0000000e+000  0.0000000e+000  0.0000000e+000  0.0000000e+000  0.0000000e+000  0.0000000e+000  8.9449920e-002 
 7.8175659e+000  0.0000000e+000  0.0000000e+000  0.0000000e+000  7.6931286e-043  0.0000000e+000  7.6931286e-043  8.9205772e-002 
 8.3893795e+000  0.0000000e+000  0.0000000e+000  0.0000000e+000 -1.4582024e-039  0.0000000e+000 -1.4582024e-039  8.9010857e-002 
 9.0012217e+000  0.0000000e+000  0.0000000e+000  0.0000000e+000  7.6931286e-043  0.0000000e+000  7.6931286e-043  8.8858359e-002 
 9.6558924e+000  0.0000000e+000  0.0000000e+000  0.0000000e+000 -1.7619286e-037  0.0000000e+000 -1.7619286e-037  8.8741586e-002 
 1.0356388e+001  0.0000000e+000  0.0000000e+000  0.0000000e+000  0.0000000e+000  0.0000000e+000  0.0000000e+000  8.8654220e-002 
 1.1105920e+001  0.0000000e+000  0.0000000e+000  0.0000000e+000  0.0000000e+000  0.0000000e+000  0.0000000e+000  8.8590443e-002 
 1.1907920e+001  0.0000000e+000  0.0000000e+000  0.0000000e+000  4.5907939e-041  0.0000000e+000  4.5907939e-041  8.8545032e-002 
 1.2766060e+001  0.0000000e+000  0.0000000e+000  0.0000000e+000  1.4012985e-045  0.0000000e+000  1.4012985e-045  8.8513583e-002 
 1.3684270e+001  0.0000000e+000  0.0000000e+000  0.0000000e+000  0.0000000e+000  0.0000000e+000  0.0000000e+000  8.8492416e-002 
 1.4666756e+001  0.0000000e+000  0.0000000e+000  0.0000000e+000  0.0000000e+000  0.0000000e+000  0.0000000e+000  8.8478595e-002 
 1.5718015e+001  0.0000000e+000  0.0000000e+000  0.0000000e+000  1.7936620e-043  0.0000000e+000  1.7936620e-043  8.8469870e-002 
 1.6842865e+001  0.0000000e+000  0.0000000e+000  0.0000000e+000 -1.4591889e-039  0.0000000e+000 -1.4591889e-039  8.8464499e-002 
 1.8046452e+001  0.0000000e+000  0.0000000e+000  0.0000000e+000  7.6931286e-043  0.0000000e+000  7.6931286e-043  8.8461496e-002 
 1.9334295e+001  0.0000000e+000  0.0000000e+000  0.0000000e+000  2.9387429e-039  0.0000000e+000  2.9387429e-039  8.8459298e-002 
 2.0000000e+001  0.0000000e+000  0.0000000e+000  0.0000000e+000  0.0000000e+000  0.0000000e+000  0.0000000e+000  8.8458166e-002 
 0.0000000e+000  0.0000000e+000  1.0000000e+000  1.2533898e+000  1.0232712e-001  0.0000000e+000  0.0000000e+000  1.3383045e+000 
 1.2291715e-002  0.0000000e+000  1.0000000e+000  4.6920958e-001 -7.0138376e-005  0.0000000e+000 -7.0138376e-005  1.2389439e+000 
 3.7736509e-002  0.0000000e+000  1.0000000e+000  1.1587375e+000  1.0082540e-001  0.0000000e+000  1.0082540e-001  1.0332600e+000 
 6.4963534e-002  0.0000000e+000  1.0000000e+000  4.3853068e-001 -6.0226546e-005  0.0000000e+000 -6.0226546e-005  7.8816038e-001 
 9.4095588e-002  0.0000000e+000  1.0000000e+000  9.6279997e-001  9.9427328e-002  0.0000000e+000  9.9427328e-002  5.8298433e-001 
 1.2526625e-001  0.0000000e+000  1.0000000e+000  3.7502298e-001 -5.1265299e-005  0.0000000e+000 -5.1265299e-005  4.3952075e-001 
 1.5861896e-001  0.0000000e+000  1.0000000e+000  7.4980903e-001  9.8129101e-002  0.0000000e+000  9.8129101e-002  3.4721389e-001 
 1.9430619e-001  0.0000000e+000  1.0000000e+000  2.4286461e-001 -4.4057608e-005  0.0000000e+000 -4.4057608e-005  2.8975633e-001 
 2.3249130e-001  0.0000000e+000  1.0000000e+000  5.6897295e-001  9.6927568e-002  0.0000000e+000  9.6927568e-002  2.5310799e-001 
 2.7334976e-001  0.0000000e+000  1.0000000e+000  1.2704529e-001 -3.7544374e-005  0.0000000e+000 -3.7544374e-005  2.2800756e-001 
 3.1706923e-001  0.0000000e+000  1.0000000e+000  4.3644464e-001  9.5820233e-002  0.0000000e+000  9.5820233e-002  2.0922156e-001 
 3.6384889e-001  0.0000000e+000  1.0000000e+000  5.1909097e-002 -3.1745622e-005  0.0000000e+000 -3.1745622e-005  1.9416545e-001 
 4.1390228e-001  0.0000000e+000  1.0000000e+000  3.4703135e-001  9.4805054e-002  0.0000000e+000  9.4805054e-002  1.8161583e-001 
 4.6745992e-001  0.0000000e+000  1.0000000e+000  1.1257507e-002 -2.6851323e-005  0.0000000e+000 -2.6851323e-005  1.7100306e-001 
 5.2476656e-001  0.0000000e+000  1.0000000e+000  2.8969729e-001  9.3880355e-002  0.0000000e+000  9.3880355e-002  1.6199069e-001 
 5.8608472e-001  0.0000000e+000  1.0000000e+000 -5.8496934e-003 -2.2581246e-005  0.0000000e+000 -2.2581246e-005  1.5429102e-001 
 6.5169525e-001  0.0000000e+000  1.0000000e+000  2.5290397e-001  9.3044460e-002  0.0000000e+000  9.3044460e-002  1.4767110e-001 
 7.2189790e-001  0.0000000e+000  1.0000000e+000 -1.0161000e-002 -1.8867273e-005  0.0000000e+000 -1.8867273e-005  1.4193721e-001 
 7.9701531e-001  0.0000000e+000  1.0000000e+000  2.2782141e-001  9.2295587e-002  0.0000000e+000  9.2295587e-002  1.3693072e-001 
 8.7739104e-001  0.0000000e+000  1.0000000e+000 -9.2115188e-003 -1.5403657e-005  0.0000000e+000 -1.5403657e-005  1.3252357e-001 
 9.6339333e-001  0.0000000e+000  1.0000000e+000  2.0910361e-001  9.1631219e-002  0.0000000e+000  9.1631219e-002  1.2860532e-001 
 1.0554160e+000  0.0000000e+000  1.0000000e+000 -7.0243049e-003 -1.2566578e-005  0.0000000e+000 -1.2566578e-005  1.2509169e-001 
 1.1538795e+000  0.0000000e+000  1.0000000e+000  1.9409907e-001  9.1048643e-002  0.0000000e+000  9.1048643e-002  1.2191363e-001 
 1.2592361e+000  0.0000000e+000  1.0000000e+000 -5.0767590e-003 -1.0236999e-005  0.0000000e+000 -1.0236999e-005  1.1901507e-001 
 1.3719671e+000  0.0000000e+000  1.0000000e+000  1.8157890e-001  9.0544023e-002  0.0000000e+000  9.0544023e-002  1.1635703e-001 
 1.4925885e+000  0.0000000e+000  1.0000000e+000 -3.6628260e-003 -8.1431263e-006  0.0000000e+000 -8.1431263e-006  1.1390017e-001 
 1.6216545e+000  0.0000000e+000  1.0000000e+000  1.7098148e-001  9.0112902e-002  0.0000000e+000  9.0112902e-002  1.1161723e-001 
 1.7597550e+000  0.0000000e+000  1.0000000e+000 -2.7168398e-003 -6.3086918e-006  0.0000000e+000 -6.3086918e-006  1.0949311e-001 
 1.9075224e+000  0.0000000e+000  1.0000000e+000  1.6197760e-001  8.9750223e-002  0.0000000e+000  8.9750223e-002  1.0751250e-001 
 2.0656340e+000  0.0000000e+000  1.0000000e+000 -2.0586478e-003 -4.9345499e-006  0.0000000e+000 -4.9345499e-006  1.0566358e-001 
 2.2348135e+000  0.0000000e+000  1.0000000e+000  1.5428290e-001  8.9449920e-002  0.0000000e+000  8.9449920e-002  1.0393765e-001 
 2.4158354e+000  0.0000000e+000  1.0000000e+000 -1.5833109e-003 -3.8268290e-006  0.0000000e+000 -3.8268290e-006  1.0232714e-001 
 2.6095285e+000  0.0000000e+000  1.0000000e+000  1.4766595e-001  8.9205764e-002  0.0000000e+000  8.9205764e-002  1.0082541e-001 
 2.8167806e+000  0.0000000e+000  1.0000000e+000 -1.2339657e-003 -2.7258088e-006  0.0000000e+000 -2.7258088e-006  9.9427342e-002 
 3.0385399e+000  0.0000000e+000  1.0000000e+000  1.4193392e-001  8.9010864e-002  0.0000000e+000  8.9010864e-002  9.8129109e-002 
 3.2758224e+000  0.0000000e+000  1.0000000e+000 -9.6757425e-004 -2.2744641e-006  0.0000000e+000 -2.2744641e-006  9.6927576e-002 
 3.5297146e+000  0.0000000e+000  1.0000000e+000  1.3692859e-001  8.8858366e-002  0.0000000e+000  8.8858366e-002  9.5820241e-002 
 3.8013785e+000  0.0000000e+000  1.0000000e+000 -7.6632085e-004 -1.5813413e-006  0.0000000e+000 -1.5813413e-006  9.4805062e-002 
 4.0920601e+000  0.0000000e+000  1.0000000e+000  1.3252215e-001  8.8741586e-002  0.0000000e+000  8.8741586e-002  9.3880355e-002 
 4.4030900e+000  0.0000000e+000  1.0000000e+000 -6.1060692e-004 -1.1395147e-006  0.0000000e+000 -1.1395147e-006  9.3044467e-002 
 4.7358913e+000  0.0000000e+000  1.0000000e+000  1.2860438e-001  8.8654220e-002  0.0000000e+000  8.8654220e-002  9.2295595e-002 
 5.0919890e+000  0.0000000e+000  1.0000000e+000 -4.8999366e-004 -6.8411595e-007  0.0000000e+000 -6.8411595e-007  9.1631219e-002 
 5.4730139e+000  0.0000000e+000  1.0000000e+000  1.2509106e-001  8.8590443e-002  0.0000000e+000  8.8590443e-002  9.1048643e-002 
 5.8807087e+000  0.0000000e+000  1.0000000e+000 -3.9696175e-004 -4.8561685e-007  0.0000000e+000 -4.8561685e-007  9.0544015e-002 
 6.3169422e+000  0.0000000e+000  1.0000000e+000  1.2191319e-001  8.8545032e-002  0.0000000e+000  8.8545032e-002  9.0112902e-002 
 6.7837143e+000  0.0000000e+000  1.0000000e+000 -3.2357147e-004 -3.3213104e-007  0.0000000e+000 -3.3213104e-007  8.9750223e-002 
 7.2831593e+000  0.0000000e+000  1.0000000e+000  1.1901477e-001  8.8513590e-002  0.0000000e+000  8.8513590e-002  8.9449920e-002 
 7.8175659e+000  0.0000000e+000  1.0000000e+000 -2.6600758e-004 -2.3461860e-007  0.0000000e+000 -2.3461860e-007  8.9205772e-002 
 8.3893795e+000  0.0000000e+000  1.0000000e+000  1.1635682e-001  8.8492416e-002  0.0000000e+000  8.8492416e-002  8.9010857e-002 
 9.0012217e+000  0.0000000e+000  1.0000000e+000 -2.2112548e-004 -1.2279018e-007  0.0000000e+000 -1.2279018e-007  8.8858359e-002 
 9.6558924e+000  0.0000000e+000  1.0000000e+000  1.1390002e-001  8.8478595e-002  0.0000000e+000  8.8478595e-002  8.8741586e-002 
 1.0356388e+001  0.0000000e+000  1.0000000e+000 -1.8403152e-004 -7.2350723e-008  0.0000000e+000 -7.2350723e-008  8.8654220e-002 
 1.1105920e+001  0.0000000e+000  1.0000000e+000  1.1161713e-001  8.8469870e-002  0.0000000e+000  8.8469870e-002  8.8590443e-002 
 1.1907920e+001  0.0000000e+000  1.0000000e+000 -1.5537943e-004 -1.4485108e-008  0.0000000e+000 -1.4485108e-008  8.8545032e-002 
 1.2766060e+001  0.0000000e+000  1.0000000e+000  1.0949303e-001  8.8464499e-002  0.0000000e+000  8.8464499e-002  8.8513583e-002 
 1.3684270e+001  0.0000000e+000  1.0000000e+000 -1.3167551e-004 -9.5064339e-009  0.0000000e+000 -9.5064339e-009  8.8492416e-002 
 1.4666756e+001  0.0000000e+000  1.0000000e+000  1.0751244e-001  8.8461496e-002  0.0000000e+000  8.8461496e-002  8.8478595e-002 
 1.5718015e+001  0.0000000e+000  1.0000000e+000 -1.1219031e-004 -9.9550261e-009  0.0000000e+000 -9.9550261e-009  8.8469870e-002 
 1.6842865e+001  0.0000000e+000  1.0000000e+000  1.0566353e-001  8.8459298e-002  0.0000000e+000  8.8459298e-002  8.8464499e-002 
 1.8046452e+001  0.0000000e+000  1.0000000e+000 -9.5622454e-005 -1.9533822e-007  0.0000000e+000 -1.9533822e-007  8.8461496e-002 
 1.9334295e+001  0.0000000e+000  1.0000000e+000  1.0393762e-001  8.8458166e-002  0.0000000e+000  8.8458166e-002  8.8459298e-002 
 2.0000000e+001  0.0000000e+000  1.0000000e+000 -8.1500868e-005 -2.9116535e-007  0.0000000e+000 -2.9116535e-007  8.8458166e-002 
Zone i=62, j=1, k=2
 0.0000000e+000  1.0000000e+000  0.0000000e+000  0.0000000e+000  0.0000000e+000  0.0000000e+000  0.0000000e+000  1.4133451e+000 
 1.2291715e-002  1.0000000e+000  0.0000000e+000  0.0000000e+000  0.0000000e+000  0.0000000e+000  0.0000000e+000  1.2983015e+000 
 3.7736509e-002  1.0000000e+000  0.0000000e+000  0.0000000e+000  0.0000000e+000  0.0000000e+000  0.0000000e+000  1.0601522e+000 
 6.4963534e-002  1.0000000e+000  0.0000000e+000  0.0000000e+000  0.0000000e+000  0.0000000e+000  0.0000000e+000  7.8878975e-001 
 9.4095588e-002  1.0000000e+000  0.0000000e+000  0.0000000e+000  0.0000000e+000  0.0000000e+000  0.0000000e+000  5.7366717e-001 
 1.2526625e-001  1.0000000e+000  0.0000000e+000  0.0000000e+000  1.1435273e-034  0.0000000e+000  1.4213456e-035  4.3080473e-001 
 1.5861896e-001  1.0000000e+000  0.0000000e+000  0.0000000e+000  0.0000000e+000  0.0000000e+000  0.0000000e+000  3.4243923e-001 
 1.9430619e-001  1.0000000e+000  0.0000000e+000  0.0000000e+000  0.0000000e+000  0.0000000e+000  0.0000000e+000  2.8824452e-001 
 2.3249130e-001  1.0000000e+000  0.0000000e+000  0.0000000e+000  0.0000000e+000  0.0000000e+000  0.0000000e+000  2.5337017e-001 
 2.7334976e-001  1.0000000e+000  0.0000000e+000  0.0000000e+000  0.0000000e+000  0.0000000e+000  0.0000000e+000  2.2888498e-001 
 3.1706923e-001  1.0000000e+000  0.0000000e+000  0.0000000e+000  0.0000000e+000  0.0000000e+000  0.0000000e+000  2.1011955e-001 
 3.6384889e-001  1.0000000e+000  0.0000000e+000  0.0000000e+000  0.0000000e+000  0.0000000e+000  0.0000000e+000  1.9488268e-001 
 4.1390228e-001  1.0000000e+000  0.0000000e+000  0.0000000e+000  0.0000000e+000  0.0000000e+000  0.0000000e+000  1.8215711e-001 
 4.6745992e-001  1.0000000e+000  0.0000000e+000  0.0000000e+000  0.0000000e+000  0.0000000e+000  0.0000000e+000  1.7142589e-001 
 5.2476656e-001  1.0000000e+000  0.0000000e+000  0.0000000e+000  0.0000000e+000  0.0000000e+000  0.0000000e+000  1.6233198e-001 
 5.8608472e-001  1.0000000e+000  0.0000000e+000  0.0000000e+000  0.0000000e+000  0.0000000e+000  0.0000000e+000  1.5456644e-001 
 6.5169525e-001  1.0000000e+000  0.0000000e+000  0.0000000e+000  0.0000000e+000  0.0000000e+000  0.0000000e+000  1.4789644e-001 
 7.2189790e-001  1.0000000e+000  0.0000000e+000  0.0000000e+000  0.0000000e+000  0.0000000e+000  0.0000000e+000  1.4212535e-001 
 7.9701531e-001  1.0000000e+000  0.0000000e+000  0.0000000e+000  0.0000000e+000  0.0000000e+000  0.0000000e+000  1.3708684e-001 
 8.7739104e-001  1.0000000e+000  0.0000000e+000  0.0000000e+000  0.0000000e+000  0.0000000e+000  0.0000000e+000  1.3264963e-001 