Variables = "x","y", "Velocity_x", "Velocity_y", "Velocity_whole value", "Pressure", "Absolute pressure", "Total pressure"
Zone i=162, j=42
-5.0000000e-001  0.0000000e+000  0.0000000e+000  0.0000000e+000  0.0000000e+000  5.8430713e-001  5.8430713e-001  5.8430713e-001 
-4.9980724e-001  9.8150698e-003  0.0000000e+000  0.0000000e+000  0.0000000e+000  5.8174664e-001  5.8174664e-001  5.8174664e-001 
-4.9903661e-001  2.9429846e-002  0.0000000e+000  0.0000000e+000  0.0000000e+000  5.7662570e-001  5.7662570e-001  5.7662570e-001 
-4.9749649e-001  4.8999012e-002  0.0000000e+000  0.0000000e+000  0.0000000e+000  5.6719017e-001  5.6719017e-001  5.6719017e-001 
-4.9518925e-001  6.8492860e-002  0.0000000e+000  0.0000000e+000  0.0000000e+000  5.5349666e-001  5.5349666e-001  5.5349666e-001 
-4.9211842e-001  8.7881342e-002  0.0000000e+000  0.0000000e+000  0.0000000e+000  5.3564221e-001  5.3564221e-001  5.3564221e-001 
-4.8828882e-001  1.0713406e-001  0.0000000e+000  0.0000000e+000  0.0000000e+000  5.1376033e-001  5.1376033e-001  5.1376033e-001 
-4.8370636e-001  1.2622136e-001  0.0000000e+000  0.0000000e+000  0.0000000e+000  4.8801610e-001  4.8801610e-001  4.8801610e-001 
-4.7837794e-001  1.4511424e-001  0.0000000e+000  0.0000000e+000  0.0000000e+000  4.5860577e-001  4.5860577e-001  4.5860577e-001 
-4.7231191e-001  1.6378364e-001  0.0000000e+000  0.0000000e+000  0.0000000e+000  4.2575493e-001  4.2575493e-001  4.2575493e-001 
-4.6551770e-001  1.8220030e-001  0.0000000e+000  0.0000000e+000  0.0000000e+000  3.8971493e-001  3.8971493e-001  3.8971493e-001 
-4.5800573e-001  2.0033574e-001  0.0000000e+000  0.0000000e+000  0.0000000e+000  3.5076356e-001  3.5076356e-001  3.5076356e-001 
-4.4978741e-001  2.1816251e-001  0.0000000e+000  0.0000000e+000  0.0000000e+000  3.0920687e-001  3.0920687e-001  3.0920687e-001 
-4.4087553e-001  2.3565310e-001  0.0000000e+000  0.0000000e+000  0.0000000e+000  2.6537395e-001  2.6537395e-001  2.6537395e-001 
-4.3128395e-001  2.5278014e-001  0.0000000e+000  0.0000000e+000  0.0000000e+000  2.1960908e-001  2.1960908e-001  2.1960908e-001 
-4.2102742e-001  2.6951718e-001  0.0000000e+000  0.0000000e+000  0.0000000e+000  1.7227140e-001  1.7227140e-001  1.7227140e-001 
-4.1012165e-001  2.8583884e-001  0.0000000e+000  0.0000000e+000  0.0000000e+000  1.2372760e-001  1.2372760e-001  1.2372760e-001 
-3.9858329e-001  3.0171996e-001  0.0000000e+000  0.0000000e+000  0.0000000e+000  7.4345313e-002  7.4345313e-002  7.4345313e-002 
-3.8643056e-001  3.1713563e-001  0.0000000e+000  0.0000000e+000  0.0000000e+000  2.4445787e-002  2.4445787e-002  2.4445787e-002 
-3.7368208e-001  3.3206218e-001  0.0000000e+000  0.0000000e+000  0.0000000e+000 -2.5569672e-002 -2.5569672e-002 -2.5569672e-002 
-3.6035728e-001  3.4647691e-001  0.0000000e+000  0.0000000e+000  0.0000000e+000 -7.5152174e-002 -7.5152174e-002 -7.5152174e-002 
-3.4647670e-001  3.6035752e-001  0.0000000e+000  0.0000000e+000  0.0000000e+000 -1.2417243e-001 -1.2417243e-001 -1.2417243e-001 
-3.3206201e-001  3.7368232e-001  0.0000000e+000  0.0000000e+000  0.0000000e+000 -1.7219169e-001 -1.7219169e-001 -1.7219169e-001 
-3.1713545e-001  3.8643074e-001  0.0000000e+000  0.0000000e+000  0.0000000e+000 -2.1843821e-001 -2.1843821e-001 -2.1843821e-001 
-3.0171975e-001  3.9858350e-001  0.0000000e+000  0.0000000e+000  0.0000000e+000 -2.6285776e-001 -2.6285776e-001 -2.6285776e-001 
-2.8583866e-001  4.1012180e-001  0.0000000e+000  0.0000000e+000  0.0000000e+000 -3.0704054e-001 -3.0704054e-001 -3.0704054e-001 
-2.6951694e-001  4.2102760e-001  0.0000000e+000  0.0000000e+000  0.0000000e+000 -3.4823886e-001 -3.4823886e-001 -3.4823886e-001 
-2.5277984e-001  4.3128410e-001  0.0000000e+000  0.0000000e+000  0.0000000e+000 -3.8684323e-001 -3.8684323e-001 -3.8684323e-001 
-2.3565285e-001  4.4087571e-001  0.0000000e+000  0.0000000e+000  0.0000000e+000 -4.2253247e-001 -4.2253247e-001 -4.2253247e-001 
-2.1816230e-001  4.4978762e-001  0.0000000e+000  0.0000000e+000  0.0000000e+000 -4.5531014e-001 -4.5531014e-001 -4.5531014e-001 
-2.0033550e-001  4.5800579e-001  0.0000000e+000  0.0000000e+000  0.0000000e+000 -4.8500293e-001 -4.8500293e-001 -4.8500293e-001 
-1.8220000e-001  4.6551776e-001  0.0000000e+000  0.0000000e+000  0.0000000e+000 -5.1148319e-001 -5.1148319e-001 -5.1148319e-001 
-1.6378340e-001  4.7231200e-001  0.0000000e+000  0.0000000e+000  0.0000000e+000 -5.3468168e-001 -5.3468168e-001 -5.3468168e-001 
-1.4511400e-001  4.7837806e-001  0.0000000e+000  0.0000000e+000  0.0000000e+000 -5.5469149e-001 -5.5469149e-001 -5.5469149e-001 
-1.2622105e-001  4.8370641e-001  0.0000000e+000  0.0000000e+000  0.0000000e+000 -5.7145274e-001 -5.7145274e-001 -5.7145274e-001 
-1.0713376e-001  4.8828888e-001  0.0000000e+000  0.0000000e+000  0.0000000e+000 -5.8500153e-001 -5.8500153e-001 -5.8500153e-001 
-8.7881044e-002  4.9211848e-001  0.0000000e+000  0.0000000e+000  0.0000000e+000 -5.9542090e-001 -5.9542090e-001 -5.9542090e-001 
-6.8492696e-002  4.9518925e-001  0.0000000e+000  0.0000000e+000  0.0000000e+000 -6.0282415e-001 -6.0282415e-001 -6.0282415e-001 
-4.8998840e-002  4.9749649e-001  0.0000000e+000  0.0000000e+000  0.0000000e+000 -6.0737848e-001 -6.0737848e-001 -6.0737848e-001 
-2.9429436e-002  4.9903661e-001  0.0000000e+000  0.0000000e+000  0.0000000e+000 -6.0927659e-001 -6.0927659e-001 -6.0927659e-001 
-9.8146517e-003  4.9980724e-001  0.0000000e+000  0.0000000e+000  0.0000000e+000 -6.0875654e-001 -6.0875654e-001 -6.0875654e-001 
 9.8152636e-003  4.9980724e-001  0.0000000e+000  0.0000000e+000  0.0000000e+000 -6.0605371e-001 -6.0605371e-001 -6.0605371e-001 
 2.9430045e-002  4.9903661e-001  0.0000000e+000  0.0000000e+000  0.0000000e+000 -6.0138005e-001 -6.0138005e-001 -6.0138005e-001 
 4.8999451e-002  4.9749646e-001  0.0000000e+000  0.0000000e+000  0.0000000e+000 -5.9497118e-001 -5.9497118e-001 -5.9497118e-001 
 6.8493299e-002  4.9518913e-001  0.0000000e+000  0.0000000e+000  0.0000000e+000 -5.8710176e-001 -5.8710176e-001 -5.8710176e-001 
 8.7881535e-002  4.9211836e-001  0.0000000e+000  0.0000000e+000  0.0000000e+000 -5.7806122e-001 -5.7806122e-001 -5.7806122e-001 
 1.0713425e-001  4.8828876e-001  0.0000000e+000  0.0000000e+000  0.0000000e+000 -5.6814915e-001 -5.6814915e-001 -5.6814915e-001 
 1.2622181e-001  4.8370618e-001  0.0000000e+000  0.0000000e+000  0.0000000e+000 -5.5764174e-001 -5.5764174e-001 -5.5764174e-001 
 1.4511469e-001  4.7837785e-001  0.0000000e+000  0.0000000e+000  0.0000000e+000 -5.4677004e-001 -5.4677004e-001 -5.4677004e-001 
 1.6378385e-001  4.7231185e-001  0.0000000e+000  0.0000000e+000  0.0000000e+000 -5.3575891e-001 -5.3575891e-001 -5.3575891e-001 
 1.8220049e-001  4.6551755e-001  0.0000000e+000  0.0000000e+000  0.0000000e+000 -5.2479476e-001 -5.2479476e-001 -5.2479476e-001 
 2.0033616e-001  4.5800549e-001  0.0000000e+000  0.0000000e+000  0.0000000e+000 -5.1401806e-001 -5.1401806e-001 -5.1401806e-001 
 2.1816289e-001  4.4978726e-001  0.0000000e+000  0.0000000e+000  0.0000000e+000 -5.0357652e-001 -5.0357652e-001 -5.0357652e-001 
 2.3565331e-001  4.4087544e-001  0.0000000e+000  0.0000000e+000  0.0000000e+000 -4.9357235e-001 -4.9357235e-001 -4.9357235e-001 
 2.5278032e-001  4.3128383e-001  0.0000000e+000  0.0000000e+000  0.0000000e+000 -4.8410225e-001 -4.8410225e-001 -4.8410225e-001 
 2.6951754e-001  4.2102724e-001  0.0000000e+000  0.0000000e+000  0.0000000e+000 -4.7519746e-001 -4.7519746e-001 -4.7519746e-001 
 2.8583926e-001  4.1012138e-001  0.0000000e+000  0.0000000e+000  0.0000000e+000 -4.6687451e-001 -4.6687451e-001 -4.6687451e-001 
 3.0172014e-001  3.9858320e-001  0.0000000e+000  0.0000000e+000  0.0000000e+000 -4.5913345e-001 -4.5913345e-001 -4.5913345e-001 
 3.1713587e-001  3.8643044e-001  0.0000000e+000  0.0000000e+000  0.0000000e+000 -4.5194831e-001 -4.5194831e-001 -4.5194831e-001 
 3.3206254e-001  3.7368178e-001  0.0000000e+000  0.0000000e+000  0.0000000e+000 -4.4526464e-001 -4.4526464e-001 -4.4526464e-001 
 3.4647721e-001  3.6035699e-001  0.0000000e+000  0.0000000e+000  0.0000000e+000 -4.3900782e-001 -4.3900782e-001 -4.3900782e-001 
 3.6035764e-001  3.4647655e-001  0.0000000e+000  0.0000000e+000  0.0000000e+000 -4.3308437e-001 -4.3308437e-001 -4.3308437e-001 
 3.7368244e-001  3.3206183e-001  0.0000000e+000  0.0000000e+000  0.0000000e+000 -4.2738947e-001 -4.2738947e-001 -4.2738947e-001 
 3.8643104e-001  3.1713516e-001  0.0000000e+000  0.0000000e+000  0.0000000e+000 -4.2181227e-001 -4.2181227e-001 -4.2181227e-001 
 3.9858380e-001  3.0171940e-001  0.0000000e+000  0.0000000e+000  0.0000000e+000 -4.1624779e-001 -4.1624779e-001 -4.1624779e-001 
 4.1012195e-001  2.8583845e-001  0.0000000e+000  0.0000000e+000  0.0000000e+000 -4.1060546e-001 -4.1060546e-001 -4.1060546e-001 
 4.2102772e-001  2.6951680e-001  0.0000000e+000  0.0000000e+000  0.0000000e+000 -4.0481269e-001 -4.0481269e-001 -4.0481269e-001 
 4.3128431e-001  2.5277954e-001  0.0000000e+000  0.0000000e+000  0.0000000e+000 -3.9882112e-001 -3.9882112e-001 -3.9882112e-001 
 4.4087589e-001  2.3565251e-001  0.0000000e+000  0.0000000e+000  0.0000000e+000 -3.9260632e-001 -3.9260632e-001 -3.9260632e-001 
 4.4978765e-001  2.1816209e-001  0.0000000e+000  0.0000000e+000  0.0000000e+000 -3.8617250e-001 -3.8617250e-001 -3.8617250e-001 
 4.5800591e-001  2.0033529e-001  0.0000000e+000  0.0000000e+000  0.0000000e+000 -3.7955093e-001 -3.7955093e-001 -3.7955093e-001 
 4.6551794e-001  1.8219960e-001  0.0000000e+000  0.0000000e+000  0.0000000e+000 -3.7279555e-001 -3.7279555e-001 -3.7279555e-001 
 4.7231215e-001  1.6378300e-001  0.0000000e+000  0.0000000e+000  0.0000000e+000 -3.6598450e-001 -3.6598450e-001 -3.6598450e-001 
 4.7837809e-001  1.4511386e-001  0.0000000e+000  0.0000000e+000  0.0000000e+000 -3.5920498e-001 -3.5920498e-001 -3.5920498e-001 
 4.8370644e-001  1.2622090e-001  0.0000000e+000  0.0000000e+000  0.0000000e+000 -3.5255221e-001 -3.5255221e-001 -3.5255221e-001 
 4.8828891e-001  1.0713334e-001  0.0000000e+000  0.0000000e+000  0.0000000e+000 -3.4612420e-001 -3.4612420e-001 -3.4612420e-001 
 4.9211851e-001  8.7880611e-002  0.0000000e+000  0.0000000e+000  0.0000000e+000 -3.4001359e-001 -3.4001359e-001 -3.4001359e-001 
 4.9518931e-001  6.8492368e-002  0.0000000e+000  0.0000000e+000  0.0000000e+000 -3.3430105e-001 -3.3430105e-001 -3.3430105e-001 
 4.9749649e-001  4.8998520e-002  0.0000000e+000  0.0000000e+000  0.0000000e+000 -3.2904997e-001 -3.2904997e-001 -3.2904997e-001 
 4.9903661e-001  2.9429115e-002  0.0000000e+000  0.0000000e+000  0.0000000e+000 -3.2429814e-001 -3.2429814e-001 -3.2429814e-001 
 4.9980724e-001  9.8146452e-003  0.0000000e+000  0.0000000e+000  0.0000000e+000 -3.2006952e-001 -3.2006952e-001 -3.2006952e-001 
 4.9980724e-001 -9.8149152e-003  0.0000000e+000  0.0000000e+000  0.0000000e+000 -3.1637269e-001 -3.1637269e-001 -3.1637269e-001 
 4.9903661e-001 -2.9429652e-002  0.0000000e+000  0.0000000e+000  0.0000000e+000 -3.1319025e-001 -3.1319025e-001 -3.1319025e-001 
 4.9749646e-001 -4.8999056e-002  0.0000000e+000  0.0000000e+000  0.0000000e+000 -3.1048751e-001 -3.1048751e-001 -3.1048751e-001 
 4.9518919e-001 -6.8492912e-002  0.0000000e+000  0.0000000e+000  0.0000000e+000 -3.0821836e-001 -3.0821836e-001 -3.0821836e-001 
 4.9211848e-001 -8.7881148e-002  0.0000000e+000  0.0000000e+000  0.0000000e+000 -3.0633023e-001 -3.0633023e-001 -3.0633023e-001 
 4.8828888e-001 -1.0713386e-001  0.0000000e+000  0.0000000e+000  0.0000000e+000 -3.0476823e-001 -3.0476823e-001 -3.0476823e-001 
 4.8370630e-001 -1.2622139e-001  0.0000000e+000  0.0000000e+000  0.0000000e+000 -3.0348146e-001 -3.0348146e-001 -3.0348146e-001 
 4.7837794e-001 -1.4511435e-001  0.0000000e+000  0.0000000e+000  0.0000000e+000 -3.0242783e-001 -3.0242783e-001 -3.0242783e-001 
 4.7231200e-001 -1.6378349e-001  0.0000000e+000  0.0000000e+000  0.0000000e+000 -3.0157843e-001 -3.0157843e-001 -3.0157843e-001 
 4.6551776e-001 -1.8220010e-001  0.0000000e+000  0.0000000e+000  0.0000000e+000 -3.0092111e-001 -3.0092111e-001 -3.0092111e-001 
 4.5800573e-001 -2.0033580e-001  0.0000000e+000  0.0000000e+000  0.0000000e+000 -3.0046394e-001 -3.0046394e-001 -3.0046394e-001 
 4.4978744e-001 -2.1816260e-001  0.0000000e+000  0.0000000e+000  0.0000000e+000 -3.0023366e-001 -3.0023366e-001 -3.0023366e-001 
 4.4087565e-001 -2.3565295e-001  0.0000000e+000  0.0000000e+000  0.0000000e+000 -3.0027127e-001 -3.0027127e-001 -3.0027127e-001 
 4.3128407e-001 -2.5277996e-001  0.0000000e+000  0.0000000e+000  0.0000000e+000 -3.0063096e-001 -3.0063096e-001 -3.0063096e-001 
 4.2102745e-001 -2.6951724e-001  0.0000000e+000  0.0000000e+000  0.0000000e+000 -3.0140635e-001 -3.0140635e-001 -3.0140635e-001 
 4.1012165e-001 -2.8583896e-001  0.0000000e+000  0.0000000e+000  0.0000000e+000 -3.0264696e-001 -3.0264696e-001 -3.0264696e-001 
 3.9858347e-001 -3.0171984e-001  0.0000000e+000  0.0000000e+000  0.0000000e+000 -3.0443180e-001 -3.0443180e-001 -3.0443180e-001 
 3.8643065e-001 -3.1713557e-001  0.0000000e+000  0.0000000e+000  0.0000000e+000 -3.0682924e-001 -3.0682924e-001 -3.0682924e-001 
 3.7368205e-001 -3.3206224e-001  0.0000000e+000  0.0000000e+000  0.0000000e+000 -3.0988657e-001 -3.0988657e-001 -3.0988657e-001 
 3.6035725e-001 -3.4647691e-001  0.0000000e+000  0.0000000e+000  0.0000000e+000 -3.1363067e-001 -3.1363067e-001 -3.1363067e-001 
 3.4647679e-001 -3.6035734e-001  0.0000000e+000  0.0000000e+000  0.0000000e+000 -3.1820229e-001 -3.1820229e-001 -3.1820229e-001 
 3.3206213e-001 -3.7368214e-001  0.0000000e+000  0.0000000e+000  0.0000000e+000 -3.2349461e-001 -3.2349461e-001 -3.2349461e-001 
 3.1713545e-001 -3.8643074e-001  0.0000000e+000  0.0000000e+000  0.0000000e+000 -3.2952538e-001 -3.2952538e-001 -3.2952538e-001 
 3.0171970e-001 -3.9858353e-001  0.0000000e+000  0.0000000e+000  0.0000000e+000 -3.3629954e-001 -3.3629954e-001 -3.3629954e-001 
 2.8583875e-001 -4.1012174e-001  0.0000000e+000  0.0000000e+000  0.0000000e+000 -3.4380114e-001 -3.4380114e-001 -3.4380114e-001 
 2.6951712e-001 -4.2102748e-001  0.0000000e+000  0.0000000e+000  0.0000000e+000 -3.5200867e-001 -3.5200867e-001 -3.5200867e-001 
 2.5277984e-001 -4.3128410e-001  0.0000000e+000  0.0000000e+000  0.0000000e+000 -3.6089617e-001 -3.6089617e-001 -3.6089617e-001 
 2.3565289e-001 -4.4087565e-001  0.0000000e+000  0.0000000e+000  0.0000000e+000 -3.7042758e-001 -3.7042758e-001 -3.7042758e-001 
 2.1816251e-001 -4.4978741e-001  0.0000000e+000  0.0000000e+000  0.0000000e+000 -3.8056082e-001 -3.8056082e-001 -3.8056082e-001 
 2.0033574e-001 -4.5800567e-001  0.0000000e+000  0.0000000e+000  0.0000000e+000 -3.9123532e-001 -3.9123532e-001 -3.9123532e-001 
 1.8220019e-001 -4.6551764e-001  0.0000000e+000  0.0000000e+000  0.0000000e+000 -4.0237397e-001 -4.0237397e-001 -4.0237397e-001 
 1.6378361e-001 -4.7231191e-001  0.0000000e+000  0.0000000e+000  0.0000000e+000 -4.1385803e-001 -4.1385803e-001 -4.1385803e-001 
 1.4511456e-001 -4.7837785e-001  0.0000000e+000  0.0000000e+000  0.0000000e+000 -4.2556027e-001 -4.2556027e-001 -4.2556027e-001 
 1.2622175e-001 -4.8370618e-001  0.0000000e+000  0.0000000e+000  0.0000000e+000 -4.3731770e-001 -4.3731770e-001 -4.3731770e-001 
 1.0713422e-001 -4.8828876e-001  0.0000000e+000  0.0000000e+000  0.0000000e+000 -4.4894078e-001 -4.4894078e-001 -4.4894078e-001 
 8.7881476e-002 -4.9211836e-001  0.0000000e+000  0.0000000e+000  0.0000000e+000 -4.6021265e-001 -4.6021265e-001 -4.6021265e-001 
 6.8493240e-002 -4.9518913e-001  0.0000000e+000  0.0000000e+000  0.0000000e+000 -4.7087973e-001 -4.7087973e-001 -4.7087973e-001 
 4.8999503e-002 -4.9749640e-001  0.0000000e+000  0.0000000e+000  0.0000000e+000 -4.8065287e-001 -4.8065287e-001 -4.8065287e-001 
 2.9430222e-002 -4.9903655e-001  0.0000000e+000  0.0000000e+000  0.0000000e+000 -4.8922494e-001 -4.8922494e-001 -4.8922494e-001 
 9.8154414e-003 -4.9980724e-001  0.0000000e+000  0.0000000e+000  0.0000000e+000 -4.9630120e-001 -4.9630120e-001 -4.9630120e-001 
-9.8143592e-003 -4.9980724e-001  0.0000000e+000  0.0000000e+000  0.0000000e+000 -5.0159937e-001 -5.0159937e-001 -5.0159937e-001 
-2.9429026e-002 -4.9903661e-001  0.0000000e+000  0.0000000e+000  0.0000000e+000 -5.0488538e-001 -5.0488538e-001 -5.0488538e-001 
-4.8998430e-002 -4.9749649e-001  0.0000000e+000  0.0000000e+000  0.0000000e+000 -5.0594419e-001 -5.0594419e-001 -5.0594419e-001 
-6.8492278e-002 -4.9518931e-001  0.0000000e+000  0.0000000e+000  0.0000000e+000 -5.0452942e-001 -5.0452942e-001 -5.0452942e-001 
-8.7880522e-002 -4.9211854e-001  0.0000000e+000  0.0000000e+000  0.0000000e+000 -5.0041550e-001 -5.0041550e-001 -5.0041550e-001 
-1.0713315e-001 -4.8828900e-001  0.0000000e+000  0.0000000e+000  0.0000000e+000 -4.9341336e-001 -4.9341336e-001 -4.9341336e-001 
-1.2622060e-001 -4.8370653e-001  0.0000000e+000  0.0000000e+000  0.0000000e+000 -4.8336911e-001 -4.8336911e-001 -4.8336911e-001 
-1.4511356e-001 -4.7837821e-001  0.0000000e+000  0.0000000e+000  0.0000000e+000 -4.7017440e-001 -4.7017440e-001 -4.7017440e-001 
-1.6378260e-001 -4.7231230e-001  0.0000000e+000  0.0000000e+000  0.0000000e+000 -4.5378482e-001 -4.5378482e-001 -4.5378482e-001 
-1.8219909e-001 -4.6551815e-001  0.0000000e+000  0.0000000e+000  0.0000000e+000 -4.3417159e-001 -4.3417159e-001 -4.3417159e-001 
-2.0033480e-001 -4.5800614e-001  0.0000000e+000  0.0000000e+000  0.0000000e+000 -4.1140875e-001 -4.1140875e-001 -4.1140875e-001 
-2.1816149e-001 -4.4978797e-001  0.0000000e+000  0.0000000e+000  0.0000000e+000 -3.8540152e-001 -3.8540152e-001 -3.8540152e-001 
-2.3565179e-001 -4.4087631e-001  0.0000000e+000  0.0000000e+000  0.0000000e+000 -3.5621178e-001 -3.5621178e-001 -3.5621178e-001 
-2.5277880e-001 -4.3128473e-001  0.0000000e+000  0.0000000e+000  0.0000000e+000 -3.2409167e-001 -3.2409167e-001 -3.2409167e-001 
-2.6951596e-001 -4.2102826e-001  0.0000000e+000  0.0000000e+000  0.0000000e+000 -2.8930098e-001 -2.8930098e-001 -2.8930098e-001 
-2.8583750e-001 -4.1012260e-001  0.0000000e+000  0.0000000e+000  0.0000000e+000 -2.5173044e-001 -2.5173044e-001 -2.5173044e-001 
-3.0171841e-001 -3.9858454e-001  0.0000000e+000  0.0000000e+000  0.0000000e+000 -2.1105693e-001 -2.1105693e-001 -2.1105693e-001 
-3.1713414e-001 -3.8643187e-001  0.0000000e+000  0.0000000e+000  0.0000000e+000 -1.6912158e-001 -1.6912158e-001 -1.6912158e-001 
-3.3206081e-001 -3.7368333e-001  0.0000000e+000  0.0000000e+000  0.0000000e+000 -1.2614836e-001 -1.2614836e-001 -1.2614836e-001 
-3.4647539e-001 -3.6035874e-001  0.0000000e+000  0.0000000e+000  0.0000000e+000 -8.1203476e-002 -8.1203476e-002 -8.1203476e-002 
-3.6035585e-001 -3.4647846e-001  0.0000000e+000  0.0000000e+000  0.0000000e+000 -3.5106000e-002 -3.5106000e-002 -3.5106000e-002 
-3.7368065e-001 -3.3206391e-001  0.0000000e+000  0.0000000e+000  0.0000000e+000  1.1653958e-002  1.1653958e-002  1.1653958e-002 
-3.8642925e-001 -3.1713736e-001  0.0000000e+000  0.0000000e+000  0.0000000e+000  5.8941938e-002  5.8941938e-002  5.8941938e-002 
-3.9858201e-001 -3.0172181e-001  0.0000000e+000  0.0000000e+000  0.0000000e+000  1.0622229e-001  1.0622229e-001  1.0622229e-001 
-4.1012016e-001 -2.8584099e-001  0.0000000e+000  0.0000000e+000  0.0000000e+000  1.5308641e-001  1.5308641e-001  1.5308641e-001 
-4.2102593e-001 -2.6951951e-001  0.0000000e+000  0.0000000e+000  0.0000000e+000  1.9921175e-001  1.9921175e-001  1.9921175e-001 
-4.3128258e-001 -2.5278240e-001  0.0000000e+000  0.0000000e+000  0.0000000e+000  2.4423027e-001  2.4423027e-001  2.4423027e-001 
-4.4087425e-001 -2.3565550e-001  0.0000000e+000  0.0000000e+000  0.0000000e+000  2.8776658e-001  2.8776658e-001  2.8776658e-001 
-4.4978610e-001 -2.1816531e-001  0.0000000e+000  0.0000000e+000  0.0000000e+000  3.2945591e-001  3.2945591e-001  3.2945591e-001 
-4.5800442e-001 -2.0033869e-001  0.0000000e+000  0.0000000e+000  0.0000000e+000  3.6895552e-001  3.6895552e-001  3.6895552e-001 
-4.6551651e-001 -1.8220320e-001  0.0000000e+000  0.0000000e+000  0.0000000e+000  4.0593311e-001  4.0593311e-001  4.0593311e-001 
-4.7231084e-001 -1.6378674e-001  0.0000000e+000  0.0000000e+000  0.0000000e+000  4.4007573e-001  4.4007573e-001  4.4007573e-001 
-4.7837695e-001 -1.4511774e-001  0.0000000e+000  0.0000000e+000  0.0000000e+000  4.7109184e-001  4.7109184e-001  4.7109184e-001 
-4.8370540e-001 -1.2622495e-001  0.0000000e+000  0.0000000e+000  0.0000000e+000  4.9872369e-001  4.9872369e-001  4.9872369e-001 
-4.8828799e-001 -1.0713753e-001  0.0000000e+000  0.0000000e+000  0.0000000e+000  5.2273721e-001  5.2273721e-001  5.2273721e-001 
-4.9211776e-001 -8.7884970e-002  0.0000000e+000  0.0000000e+000  0.0000000e+000  5.4293054e-001  5.4293054e-001  5.4293054e-001 
-4.9518871e-001 -6.8496875e-002  0.0000000e+000  0.0000000e+000  0.0000000e+000  5.5912971e-001  5.5912971e-001  5.5912971e-001 
-4.9749610e-001 -4.9003161e-002  0.0000000e+000  0.0000000e+000  0.0000000e+000  5.7119483e-001  5.7119483e-001  5.7119483e-001 
-4.9903637e-001 -2.9433891e-002  0.0000000e+000  0.0000000e+000  0.0000000e+000  5.7902122e-001  5.7902122e-001  5.7902122e-001 
-4.9980718e-001 -9.8170647e-003  0.0000000e+000  0.0000000e+000  0.0000000e+000  5.8254313e-001  5.8254313e-001  5.8254313e-001 
-5.0000000e-001  0.0000000e+000  0.0000000e+000  0.0000000e+000  0.0000000e+000  5.8430427e-001  5.8430427e-001  5.8430427e-001 
-5.2504581e-001  0.0000000e+000  1.5802180e-002  2.2101719e-003  1.5955994e-002  5.6728232e-001  5.6728232e-001  5.6740963e-001 
-5.2484339e-001  1.0306715e-002  1.5852874e-002  1.5599779e-002  2.2241104e-002  5.6688631e-001  5.6688631e-001  5.6713367e-001 
-5.2403414e-001  3.0904025e-002  1.7989196e-002  4.2273760e-002  4.5942158e-002  5.6188637e-001  5.6188637e-001  5.6294173e-001 
-5.2241683e-001  5.1453456e-002  2.2145338e-002  6.8608344e-002  7.2093837e-002  5.5270320e-001  5.5270320e-001  5.5530196e-001 
-5.1999402e-001  7.1923792e-002  2.8280511e-002  9.4371758e-002  9.8518103e-002  5.3939694e-001  5.3939694e-001  5.4424983e-001 
-5.1676935e-001  9.2283443e-002  3.6329594e-002  1.1933731e-001  1.2474468e-001  5.2206153e-001  5.2206153e-001  5.2984214e-001 
-5.1274794e-001  1.1250058e-001  4.6204884e-002  1.4328498e-001  1.5055057e-001  5.0082439e-001  5.0082439e-001  5.1215714e-001 
-5.0793594e-001  1.3254401e-001  5.7785563e-002  1.6600591e-001  1.7577581e-001  4.7584465e-001  4.7584465e-001  4.9129322e-001 
-5.0234067e-001  1.5238327e-001  7.0933059e-002  1.8730395e-001  2.0028546e-001  4.4731092e-001  4.4731092e-001  4.6736807e-001 
-4.9597073e-001  1.7198785e-001  8.5490450e-002  2.0699784e-001  2.2395697e-001  4.1544059e-001  4.1544059e-001  4.4051895e-001 
-4.8883617e-001  1.9132701e-001  1.0128277e-001  2.2492161e-001  2.4667373e-001  3.8047647e-001  3.8047647e-001  4.1090044e-001 
-4.8094791e-001  2.1037090e-001  1.1811818e-001  2.4092673e-001  2.6832366e-001  3.4268719e-001  3.4268719e-001  3.7868598e-001 
-4.7231796e-001  2.2909063e-001  1.3578947e-001  2.5488722e-001  2.8880146e-001  3.0236509e-001  3.0236509e-001  3.4406823e-001 
-4.6295968e-001  2.4745733e-001  1.5407582e-001  2.6670066e-001  3.0800745e-001  2.5981823e-001  2.5981823e-001  3.0725253e-001 
-4.5288762e-001  2.6544231e-001  1.7274490e-001  2.7628660e-001  3.2584518e-001  2.1537246e-001  2.1537246e-001  2.6846001e-001 
-4.4211736e-001  2.8301775e-001  1.9156015e-001  2.8358766e-001  3.4222397e-001  1.6937263e-001  1.6937263e-001  2.2793126e-001 
-4.3066528e-001  3.0015698e-001  2.1028258e-001  2.8857198e-001  3.5706100e-001  1.2217271e-001  1.2217271e-001  1.8591899e-001 
-4.1854897e-001  3.1683356e-001  2.2867477e-001  2.9123008e-001  3.7027979e-001  7.4131243e-002  7.4131243e-002  1.4268480e-001 
-4.0578747e-001  3.3302146e-001  2.4651170e-001  2.9155347e-001  3.8180026e-001  2.5579285e-002  2.5579285e-002  9.8465003e-002 
-3.9240041e-001  3.4869573e-001  2.6352578e-001  2.8967452e-001  3.9160845e-001 -2.3094922e-002 -2.3094922e-002  5.3583659e-002 
-3.7840819e-001  3.6383247e-001  2.7949700e-001  2.8561977e-001  3.9962134e-001 -7.1462691e-002 -7.1462691e-002  8.3859200e-003 
-3.6383229e-001  3.7840837e-001  2.9419655e-001  2.7949795e-001  4.0579638e-001 -1.1928663e-001 -1.1928663e-001 -3.6951270e-002 
-3.4869552e-001  3.9240062e-001  3.0739358e-001  2.7140188e-001  4.1006073e-001 -1.6614762e-001 -1.6614762e-001 -8.2072720e-002 
-3.3302128e-001  4.0578768e-001  3.1893152e-001  2.6157388e-001  4.1247812e-001 -2.1147753e-001 -2.1147753e-001 -1.2640843e-001 
-3.1683335e-001  4.1854918e-001  3.2884374e-001  2.5020519e-001  4.1320798e-001 -2.5509828e-001 -2.5509828e-001 -1.6972786e-001 
-3.0015671e-001  4.3066543e-001  3.3698204e-001  2.3707640e-001  4.1202199e-001 -2.9773051e-001 -2.9773051e-001 -2.1284945e-001 
-2.8301749e-001  4.4211751e-001  3.4282359e-001  2.2256146e-001  4.0873173e-001 -3.3796462e-001 -3.3796462e-001 -2.5443381e-001 
-2.6544201e-001  4.5288780e-001  3.4646633e-001  2.0691617e-001  4.0355077e-001 -3.7542361e-001 -3.7542361e-001 -2.9399699e-001 
-2.4745707e-001  4.6295986e-001  3.4783563e-001  1.9052266e-001  3.9659616e-001 -4.1026667e-001 -4.1026667e-001 -3.3162242e-001 
-2.2909039e-001  4.7231817e-001  3.4698081e-001  1.7354329e-001  3.8795999e-001 -4.4228604e-001 -4.4228604e-001 -3.6702958e-001 
-2.1037063e-001  4.8094803e-001  3.4383312e-001  1.5620378e-001  3.7765172e-001 -4.7126600e-001 -4.7126600e-001 -3.9995557e-001 
-1.9132671e-001  4.8883629e-001  3.3840367e-001  1.3877250e-001  3.6575246e-001 -4.9717987e-001 -4.9717987e-001 -4.3029243e-001 
-1.7198756e-001  4.9597090e-001  3.3078155e-001  1.2144613e-001  3.5237139e-001 -5.1991129e-001 -5.1991129e-001 -4.5782849e-001 
-1.5238300e-001  5.0234073e-001  3.2109728e-001  1.0440706e-001  3.3764523e-001 -5.3942376e-001 -5.3942376e-001 -4.8242161e-001 
-1.3254370e-001  5.0793600e-001  3.0948046e-001  8.7910004e-002  3.2172400e-001 -5.5575126e-001 -5.5575126e-001 -5.0399810e-001 
-1.1250028e-001  5.1274806e-001  2.9609093e-001  7.2167046e-002  3.0475879e-001 -5.6894171e-001 -5.6894171e-001 -5.2250278e-001 
-9.2283152e-002  5.1676941e-001  2.8112397e-001  5.7353269e-002  2.8691477e-001 -5.7908487e-001 -5.7908487e-001 -5.3792483e-001 
-7.1923614e-002  5.1999402e-001  2.6480627e-001  4.3628838e-002  2.6837629e-001 -5.8630496e-001 -5.8630496e-001 -5.5029202e-001 
-5.1453285e-002  5.2241683e-001  2.4738693e-001  3.1125706e-002  2.4933733e-001 -5.9076977e-001 -5.9076977e-001 -5.5968523e-001 
-3.0903623e-002  5.2403414e-001  2.2912887e-001  1.9949280e-002  2.2999568e-001 -5.9267730e-001 -5.9267730e-001 -5.6622827e-001 
-1.0306302e-002  5.2484339e-001  2.1029980e-001  1.0175711e-002  2.1054585e-001 -5.9226137e-001 -5.9226137e-001 -5.7009661e-001 
 1.0306913e-002  5.2484339e-001  1.9116659e-001  1.8497473e-003  1.9117555e-001 -5.8976328e-001 -5.8976328e-001 -5.7148921e-001 
 3.0904226e-002  5.2403414e-001  1.7200251e-001 -5.0081857e-003  1.7207541e-001 -5.8541858e-001 -5.8541858e-001 -5.7061362e-001 
 5.1453888e-002  5.2241683e-001  1.5306212e-001 -1.0411491e-002  1.5341581e-001 -5.7947809e-001 -5.7947809e-001 -5.6770986e-001 
 7.1924217e-002  5.1999396e-001  1.3459101e-001 -1.4415107e-002  1.3536076e-001 -5.7220912e-001 -5.7220912e-001 -5.6304783e-001 
 9.2283644e-002  5.1676929e-001  1.1681227e-001 -1.7109502e-002  1.1805863e-001 -5.6388396e-001 -5.6388396e-001 -5.5691504e-001 
 1.1250077e-001  5.1274788e-001  9.9915892e-002 -1.8619325e-002  1.0163594e-001 -5.5476218e-001 -5.5476218e-001 -5.4959726e-001 
 1.3254446e-001  5.0793576e-001  8.4054492e-002 -1.9086704e-002  8.6194314e-002 -5.4508287e-001 -5.4508287e-001 -5.4136813e-001 
 1.5238373e-001  5.0234056e-001  6.9351934e-002 -1.8634075e-002  7.1811698e-002 -5.3506166e-001 -5.3506166e-001 -5.3248322e-001 
 1.7198803e-001  4.9597070e-001  5.5897154e-002 -1.7391399e-002  5.8540180e-002 -5.2490640e-001 -5.2490640e-001 -5.2319294e-001 
 1.9132717e-001  4.8883608e-001  4.3737333e-002 -1.5515714e-002  4.6407886e-002 -5.1479566e-001 -5.1479566e-001 -5.1371884e-001 
 2.1037130e-001  4.8094773e-001  3.2890782e-002 -1.3158729e-002  3.5425354e-002 -5.0486219e-001 -5.0486219e-001 -5.0423473e-001 
 2.2909102e-001  4.7231781e-001  2.3348985e-002 -1.0450348e-002  2.5580948e-002 -4.9523512e-001 -4.9523512e-001 -4.9490792e-001 
 2.4745752e-001  4.6295959e-001  1.5070119e-002 -7.5027915e-003  1.6834499e-002 -4.8601088e-001 -4.8601088e-001 -4.8586917e-001 
 2.6544243e-001  4.5288754e-001  7.9843551e-003 -4.4075935e-003  9.1201318e-003 -4.7726640e-001 -4.7726640e-001 -4.7722483e-001 
 2.8301811e-001  4.4211715e-001  2.0023796e-003 -1.2333455e-003  2.3517366e-003 -4.6904355e-001 -4.6904355e-001 -4.6904078e-001 
 3.0015737e-001  4.3066505e-001 -2.9784248e-003  1.9703601e-003  3.5711809e-003 -4.6135944e-001 -4.6135944e-001 -4.6135306e-001 
 3.1683379e-001  4.1854888e-001 -7.0689726e-003  5.1714866e-003  8.7586902e-003 -4.5421034e-001 -4.5421034e-001 -4.5417199e-001 
 3.3302167e-001  4.0578738e-001 -1.0384482e-002  8.3496114e-003  1.3324920e-002 -4.4757000e-001 -4.4757000e-001 -4.4748122e-001 
 3.4869608e-001  3.9240015e-001 -1.3035131e-002  1.1500810e-002  1.7383419e-002 -4.4138899e-001 -4.4138899e-001 -4.4123790e-001 
 3.6383277e-001  3.7840784e-001 -1.5121778e-002  1.4625686e-002  2.1037558e-002 -4.3559960e-001 -4.3559960e-001 -4.3537831e-001 
 3.7840849e-001  3.6383209e-001 -1.6732505e-002  1.7720662e-002  2.4372086e-002 -4.3011707e-001 -4.3011707e-001 -4.2982006e-001 
 3.9240077e-001  3.4869534e-001 -1.7931307e-002  2.0772258e-002  2.7441181e-002 -4.2484444e-001 -4.2484444e-001 -4.2446792e-001 
 4.0578800e-001  3.3302093e-001 -1.8762516e-002  2.3752233e-002  3.0268805e-002 -4.1967896e-001 -4.1967896e-001 -4.1922086e-001 
 4.1854951e-001  3.1683302e-001 -1.9257456e-002  2.6613895e-002  3.2850403e-002 -4.1452259e-001 -4.1452259e-001 -4.1398302e-001 
 4.3066561e-001  3.0015659e-001 -1.9433178e-002  2.9293057e-002  3.5152975e-002 -4.0928900e-001 -4.0928900e-001 -4.0867114e-001 
 4.4211763e-001  2.8301734e-001 -1.9300498e-002  3.1710103e-002  3.7121959e-002 -4.0390772e-001 -4.0390772e-001 -4.0321869e-001 
 4.5288801e-001  2.6544169e-001 -1.8865857e-002  3.3775594e-002  3.8687352e-002 -3.9832914e-001 -3.9832914e-001 -3.9758077e-001 
 4.6296006e-001  2.4745670e-001 -1.8140616e-002  3.5395946e-002  3.9773796e-002 -3.9252540e-001 -3.9252540e-001 -3.9173442e-001 