Variables = "x","y", "Velocity_x", "Velocity_y", "Velocity_whole value", "Pressure", "Absolute pressure", "Total pressure"
Zone i=162, j=42
-5.0000000e-001  0.0000000e+000  0.0000000e+000  0.0000000e+000  0.0000000e+000  5.8430600e-001  5.8430600e-001  5.8430600e-001 
-4.9980724e-001  9.8150698e-003  0.0000000e+000  0.0000000e+000  0.0000000e+000  5.8254373e-001  5.8254373e-001  5.8254373e-001 
-4.9903661e-001  2.9429846e-002  0.0000000e+000  0.0000000e+000  0.0000000e+000  5.7901919e-001  5.7901919e-001  5.7901919e-001 
-4.9749649e-001  4.8999012e-002  0.0000000e+000  0.0000000e+000  0.0000000e+000  5.7119012e-001  5.7119012e-001  5.7119012e-001 
-4.9518925e-001  6.8492860e-002  0.0000000e+000  0.0000000e+000  0.0000000e+000  5.5912232e-001  5.5912232e-001  5.5912232e-001 
-4.9211842e-001  8.7881342e-002  0.0000000e+000  0.0000000e+000  0.0000000e+000  5.4291999e-001  5.4291999e-001  5.4291999e-001 
-4.8828882e-001  1.0713406e-001  0.0000000e+000  0.0000000e+000  0.0000000e+000  5.2272415e-001  5.2272415e-001  5.2272415e-001 
-4.8370636e-001  1.2622136e-001  0.0000000e+000  0.0000000e+000  0.0000000e+000  4.9870732e-001  4.9870732e-001  4.9870732e-001 
-4.7837794e-001  1.4511424e-001  0.0000000e+000  0.0000000e+000  0.0000000e+000  4.7107309e-001  4.7107309e-001  4.7107309e-001 
-4.7231191e-001  1.6378364e-001  0.0000000e+000  0.0000000e+000  0.0000000e+000  4.4005370e-001  4.4005370e-001  4.4005370e-001 
-4.6551770e-001  1.8220030e-001  0.0000000e+000  0.0000000e+000  0.0000000e+000  4.0590763e-001  4.0590763e-001  4.0590763e-001 
-4.5800573e-001  2.0033574e-001  0.0000000e+000  0.0000000e+000  0.0000000e+000  3.6892533e-001  3.6892533e-001  3.6892533e-001 
-4.4978741e-001  2.1816251e-001  0.0000000e+000  0.0000000e+000  0.0000000e+000  3.2942384e-001  3.2942384e-001  3.2942384e-001 
-4.4087553e-001  2.3565310e-001  0.0000000e+000  0.0000000e+000  0.0000000e+000  2.8773001e-001  2.8773001e-001  2.8773001e-001 
-4.3128395e-001  2.5278014e-001  0.0000000e+000  0.0000000e+000  0.0000000e+000  2.4418963e-001  2.4418963e-001  2.4418963e-001 
-4.2102742e-001  2.6951718e-001  0.0000000e+000  0.0000000e+000  0.0000000e+000  1.9916888e-001  1.9916888e-001  1.9916888e-001 
-4.1012165e-001  2.8583884e-001  0.0000000e+000  0.0000000e+000  0.0000000e+000  1.5303873e-001  1.5303873e-001  1.5303873e-001 
-3.9858329e-001  3.0171996e-001  0.0000000e+000  0.0000000e+000  0.0000000e+000  1.0617057e-001  1.0617057e-001  1.0617057e-001 
-3.8643056e-001  3.1713563e-001  0.0000000e+000  0.0000000e+000  0.0000000e+000  5.8888108e-002  5.8888108e-002  5.8888108e-002 
-3.7368208e-001  3.3206218e-001  0.0000000e+000  0.0000000e+000  0.0000000e+000  1.1595874e-002  1.1595874e-002  1.1595874e-002 
-3.6035728e-001  3.4647691e-001  0.0000000e+000  0.0000000e+000  0.0000000e+000 -3.5167284e-002 -3.5167284e-002 -3.5167284e-002 
-3.4647670e-001  3.6035752e-001  0.0000000e+000  0.0000000e+000  0.0000000e+000 -8.1269264e-002 -8.1269264e-002 -8.1269264e-002 
-3.3206201e-001  3.7368232e-001  0.0000000e+000  0.0000000e+000  0.0000000e+000 -1.2621939e-001 -1.2621939e-001 -1.2621939e-001 
-3.1713545e-001  3.8643074e-001  0.0000000e+000  0.0000000e+000  0.0000000e+000 -1.6919568e-001 -1.6919568e-001 -1.6919568e-001 
-3.0171975e-001  3.9858350e-001  0.0000000e+000  0.0000000e+000  0.0000000e+000 -2.1113281e-001 -2.1113281e-001 -2.1113281e-001 
-2.8583866e-001  4.1012180e-001  0.0000000e+000  0.0000000e+000  0.0000000e+000 -2.5181144e-001 -2.5181144e-001 -2.5181144e-001 
-2.6951694e-001  4.2102760e-001  0.0000000e+000  0.0000000e+000  0.0000000e+000 -2.8938380e-001 -2.8938380e-001 -2.8938380e-001 
-2.5277984e-001  4.3128410e-001  0.0000000e+000  0.0000000e+000  0.0000000e+000 -3.2417834e-001 -3.2417834e-001 -3.2417834e-001 
-2.3565285e-001  4.4087571e-001  0.0000000e+000  0.0000000e+000  0.0000000e+000 -3.5629895e-001 -3.5629895e-001 -3.5629895e-001 
-2.1816230e-001  4.4978762e-001  0.0000000e+000  0.0000000e+000  0.0000000e+000 -3.8549322e-001 -3.8549322e-001 -3.8549322e-001 
-2.0033550e-001  4.5800579e-001  0.0000000e+000  0.0000000e+000  0.0000000e+000 -4.1150290e-001 -4.1150290e-001 -4.1150290e-001 
-1.8220000e-001  4.6551776e-001  0.0000000e+000  0.0000000e+000  0.0000000e+000 -4.3426591e-001 -4.3426591e-001 -4.3426591e-001 
-1.6378340e-001  4.7231200e-001  0.0000000e+000  0.0000000e+000  0.0000000e+000 -4.5388144e-001 -4.5388144e-001 -4.5388144e-001 
-1.4511400e-001  4.7837806e-001  0.0000000e+000  0.0000000e+000  0.0000000e+000 -4.7027317e-001 -4.7027317e-001 -4.7027317e-001 
-1.2622105e-001  4.8370641e-001  0.0000000e+000  0.0000000e+000  0.0000000e+000 -4.8346797e-001 -4.8346797e-001 -4.8346797e-001 
-1.0713376e-001  4.8828888e-001  0.0000000e+000  0.0000000e+000  0.0000000e+000 -4.9351212e-001 -4.9351212e-001 -4.9351212e-001 
-8.7881044e-002  4.9211848e-001  0.0000000e+000  0.0000000e+000  0.0000000e+000 -5.0051659e-001 -5.0051659e-001 -5.0051659e-001 
-6.8492696e-002  4.9518925e-001  0.0000000e+000  0.0000000e+000  0.0000000e+000 -5.0462919e-001 -5.0462919e-001 -5.0462919e-001 
-4.8998840e-002  4.9749649e-001  0.0000000e+000  0.0000000e+000  0.0000000e+000 -5.0604439e-001 -5.0604439e-001 -5.0604439e-001 
-2.9429436e-002  4.9903661e-001  0.0000000e+000  0.0000000e+000  0.0000000e+000 -5.0498527e-001 -5.0498527e-001 -5.0498527e-001 
-9.8146517e-003  4.9980724e-001  0.0000000e+000  0.0000000e+000  0.0000000e+000 -5.0169861e-001 -5.0169861e-001 -5.0169861e-001 
 9.8152636e-003  4.9980724e-001  0.0000000e+000  0.0000000e+000  0.0000000e+000 -4.9639904e-001 -4.9639904e-001 -4.9639904e-001 
 2.9430045e-002  4.9903661e-001  0.0000000e+000  0.0000000e+000  0.0000000e+000 -4.8932138e-001 -4.8932138e-001 -4.8932138e-001 
 4.8999451e-002  4.9749646e-001  0.0000000e+000  0.0000000e+000  0.0000000e+000 -4.8074806e-001 -4.8074806e-001 -4.8074806e-001 
 6.8493299e-002  4.9518913e-001  0.0000000e+000  0.0000000e+000  0.0000000e+000 -4.7097269e-001 -4.7097269e-001 -4.7097269e-001 
 8.7881535e-002  4.9211836e-001  0.0000000e+000  0.0000000e+000  0.0000000e+000 -4.6030387e-001 -4.6030387e-001 -4.6030387e-001 
 1.0713425e-001  4.8828876e-001  0.0000000e+000  0.0000000e+000  0.0000000e+000 -4.4902968e-001 -4.4902968e-001 -4.4902968e-001 
 1.2622181e-001  4.8370618e-001  0.0000000e+000  0.0000000e+000  0.0000000e+000 -4.3740413e-001 -4.3740413e-001 -4.3740413e-001 
 1.4511469e-001  4.7837785e-001  0.0000000e+000  0.0000000e+000  0.0000000e+000 -4.2564413e-001 -4.2564413e-001 -4.2564413e-001 
 1.6378385e-001  4.7231185e-001  0.0000000e+000  0.0000000e+000  0.0000000e+000 -4.1393951e-001 -4.1393951e-001 -4.1393951e-001 
 1.8220049e-001  4.6551755e-001  0.0000000e+000  0.0000000e+000  0.0000000e+000 -4.0245292e-001 -4.0245292e-001 -4.0245292e-001 
 2.0033616e-001  4.5800549e-001  0.0000000e+000  0.0000000e+000  0.0000000e+000 -3.9131191e-001 -3.9131191e-001 -3.9131191e-001 
 2.1816289e-001  4.4978726e-001  0.0000000e+000  0.0000000e+000  0.0000000e+000 -3.8063481e-001 -3.8063481e-001 -3.8063481e-001 
 2.3565331e-001  4.4087544e-001  0.0000000e+000  0.0000000e+000  0.0000000e+000 -3.7049946e-001 -3.7049946e-001 -3.7049946e-001 
 2.5278032e-001  4.3128383e-001  0.0000000e+000  0.0000000e+000  0.0000000e+000 -3.6096597e-001 -3.6096597e-001 -3.6096597e-001 
 2.6951754e-001  4.2102724e-001  0.0000000e+000  0.0000000e+000  0.0000000e+000 -3.5207653e-001 -3.5207653e-001 -3.5207653e-001 
 2.8583926e-001  4.1012138e-001  0.0000000e+000  0.0000000e+000  0.0000000e+000 -3.4386736e-001 -3.4386736e-001 -3.4386736e-001 
 3.0172014e-001  3.9858320e-001  0.0000000e+000  0.0000000e+000  0.0000000e+000 -3.3636454e-001 -3.3636454e-001 -3.3636454e-001 
 3.1713587e-001  3.8643044e-001  0.0000000e+000  0.0000000e+000  0.0000000e+000 -3.2958946e-001 -3.2958946e-001 -3.2958946e-001 
 3.3206254e-001  3.7368178e-001  0.0000000e+000  0.0000000e+000  0.0000000e+000 -3.2355803e-001 -3.2355803e-001 -3.2355803e-001 
 3.4647721e-001  3.6035699e-001  0.0000000e+000  0.0000000e+000  0.0000000e+000 -3.1826571e-001 -3.1826571e-001 -3.1826571e-001 
 3.6035764e-001  3.4647655e-001  0.0000000e+000  0.0000000e+000  0.0000000e+000 -3.1369463e-001 -3.1369463e-001 -3.1369463e-001 
 3.7368244e-001  3.3206183e-001  0.0000000e+000  0.0000000e+000  0.0000000e+000 -3.0995065e-001 -3.0995065e-001 -3.0995065e-001 
 3.8643104e-001  3.1713516e-001  0.0000000e+000  0.0000000e+000  0.0000000e+000 -3.0689389e-001 -3.0689389e-001 -3.0689389e-001 
 3.9858380e-001  3.0171940e-001  0.0000000e+000  0.0000000e+000  0.0000000e+000 -3.0449724e-001 -3.0449724e-001 -3.0449724e-001 
 4.1012195e-001  2.8583845e-001  0.0000000e+000  0.0000000e+000  0.0000000e+000 -3.0271319e-001 -3.0271319e-001 -3.0271319e-001 
 4.2102772e-001  2.6951680e-001  0.0000000e+000  0.0000000e+000  0.0000000e+000 -3.0147326e-001 -3.0147326e-001 -3.0147326e-001 
 4.3128431e-001  2.5277954e-001  0.0000000e+000  0.0000000e+000  0.0000000e+000 -3.0069807e-001 -3.0069807e-001 -3.0069807e-001 
 4.4087589e-001  2.3565251e-001  0.0000000e+000  0.0000000e+000  0.0000000e+000 -3.0033842e-001 -3.0033842e-001 -3.0033842e-001 
 4.4978765e-001  2.1816209e-001  0.0000000e+000  0.0000000e+000  0.0000000e+000 -3.0030033e-001 -3.0030033e-001 -3.0030033e-001 
 4.5800591e-001  2.0033529e-001  0.0000000e+000  0.0000000e+000  0.0000000e+000 -3.0052936e-001 -3.0052936e-001 -3.0052936e-001 
 4.6551794e-001  1.8219960e-001  0.0000000e+000  0.0000000e+000  0.0000000e+000 -3.0098426e-001 -3.0098426e-001 -3.0098426e-001 
 4.7231215e-001  1.6378300e-001  0.0000000e+000  0.0000000e+000  0.0000000e+000 -3.0163869e-001 -3.0163869e-001 -3.0163869e-001 
 4.7837809e-001  1.4511386e-001  0.0000000e+000  0.0000000e+000  0.0000000e+000 -3.0248427e-001 -3.0248427e-001 -3.0248427e-001 
 4.8370644e-001  1.2622090e-001  0.0000000e+000  0.0000000e+000  0.0000000e+000 -3.0353296e-001 -3.0353296e-001 -3.0353296e-001 
 4.8828891e-001  1.0713334e-001  0.0000000e+000  0.0000000e+000  0.0000000e+000 -3.0481395e-001 -3.0481395e-001 -3.0481395e-001 
 4.9211851e-001  8.7880611e-002  0.0000000e+000  0.0000000e+000  0.0000000e+000 -3.0636939e-001 -3.0636939e-001 -3.0636939e-001 
 4.9518931e-001  6.8492368e-002  0.0000000e+000  0.0000000e+000  0.0000000e+000 -3.0825007e-001 -3.0825007e-001 -3.0825007e-001 
 4.9749649e-001  4.8998520e-002  0.0000000e+000  0.0000000e+000  0.0000000e+000 -3.1051117e-001 -3.1051117e-001 -3.1051117e-001 
 4.9903661e-001  2.9429115e-002  0.0000000e+000  0.0000000e+000  0.0000000e+000 -3.1320542e-001 -3.1320542e-001 -3.1320542e-001 
 4.9980724e-001  9.8146452e-003  0.0000000e+000  0.0000000e+000  0.0000000e+000 -3.1637895e-001 -3.1637895e-001 -3.1637895e-001 
 4.9980724e-001 -9.8149152e-003  0.0000000e+000  0.0000000e+000  0.0000000e+000 -3.2006693e-001 -3.2006693e-001 -3.2006693e-001 
 4.9903661e-001 -2.9429652e-002  0.0000000e+000  0.0000000e+000  0.0000000e+000 -3.2428709e-001 -3.2428709e-001 -3.2428709e-001 
 4.9749646e-001 -4.8999056e-002  0.0000000e+000  0.0000000e+000  0.0000000e+000 -3.2903102e-001 -3.2903102e-001 -3.2903102e-001 
 4.9518919e-001 -6.8492912e-002  0.0000000e+000  0.0000000e+000  0.0000000e+000 -3.3427447e-001 -3.3427447e-001 -3.3427447e-001 
 4.9211848e-001 -8.7881148e-002  0.0000000e+000  0.0000000e+000  0.0000000e+000 -3.3998010e-001 -3.3998010e-001 -3.3998010e-001 
 4.8828888e-001 -1.0713386e-001  0.0000000e+000  0.0000000e+000  0.0000000e+000 -3.4608492e-001 -3.4608492e-001 -3.4608492e-001 
 4.8370630e-001 -1.2622139e-001  0.0000000e+000  0.0000000e+000  0.0000000e+000 -3.5250825e-001 -3.5250825e-001 -3.5250825e-001 
 4.7837794e-001 -1.4511435e-001  0.0000000e+000  0.0000000e+000  0.0000000e+000 -3.5915735e-001 -3.5915735e-001 -3.5915735e-001 
 4.7231200e-001 -1.6378349e-001  0.0000000e+000  0.0000000e+000  0.0000000e+000 -3.6593464e-001 -3.6593464e-001 -3.6593464e-001 
 4.6551776e-001 -1.8220010e-001  0.0000000e+000  0.0000000e+000  0.0000000e+000 -3.7274456e-001 -3.7274456e-001 -3.7274456e-001 
 4.5800573e-001 -2.0033580e-001  0.0000000e+000  0.0000000e+000  0.0000000e+000 -3.7949976e-001 -3.7949976e-001 -3.7949976e-001 
 4.4978744e-001 -2.1816260e-001  0.0000000e+000  0.0000000e+000  0.0000000e+000 -3.8612235e-001 -3.8612235e-001 -3.8612235e-001 
 4.4087565e-001 -2.3565295e-001  0.0000000e+000  0.0000000e+000  0.0000000e+000 -3.9255798e-001 -3.9255798e-001 -3.9255798e-001 
 4.3128407e-001 -2.5277996e-001  0.0000000e+000  0.0000000e+000  0.0000000e+000 -3.9877477e-001 -3.9877477e-001 -3.9877477e-001 
 4.2102745e-001 -2.6951724e-001  0.0000000e+000  0.0000000e+000  0.0000000e+000 -4.0476921e-001 -4.0476921e-001 -4.0476921e-001 
 4.1012165e-001 -2.8583896e-001  0.0000000e+000  0.0000000e+000  0.0000000e+000 -4.1056472e-001 -4.1056472e-001 -4.1056472e-001 
 3.9858347e-001 -3.0171984e-001  0.0000000e+000  0.0000000e+000  0.0000000e+000 -4.1621009e-001 -4.1621009e-001 -4.1621009e-001 
 3.8643065e-001 -3.1713557e-001  0.0000000e+000  0.0000000e+000  0.0000000e+000 -4.2177710e-001 -4.2177710e-001 -4.2177710e-001 
 3.7368205e-001 -3.3206224e-001  0.0000000e+000  0.0000000e+000  0.0000000e+000 -4.2735651e-001 -4.2735651e-001 -4.2735651e-001 
 3.6035725e-001 -3.4647691e-001  0.0000000e+000  0.0000000e+000  0.0000000e+000 -4.3305331e-001 -4.3305331e-001 -4.3305331e-001 
 3.4647679e-001 -3.6035734e-001  0.0000000e+000  0.0000000e+000  0.0000000e+000 -4.3897805e-001 -4.3897805e-001 -4.3897805e-001 
 3.3206213e-001 -3.7368214e-001  0.0000000e+000  0.0000000e+000  0.0000000e+000 -4.4523570e-001 -4.4523570e-001 -4.4523570e-001 
 3.1713545e-001 -3.8643074e-001  0.0000000e+000  0.0000000e+000  0.0000000e+000 -4.5191962e-001 -4.5191962e-001 -4.5191962e-001 
 3.0171970e-001 -3.9858353e-001  0.0000000e+000  0.0000000e+000  0.0000000e+000 -4.5910457e-001 -4.5910457e-001 -4.5910457e-001 
 2.8583875e-001 -4.1012174e-001  0.0000000e+000  0.0000000e+000  0.0000000e+000 -4.6684512e-001 -4.6684512e-001 -4.6684512e-001 
 2.6951712e-001 -4.2102748e-001  0.0000000e+000  0.0000000e+000  0.0000000e+000 -4.7516707e-001 -4.7516707e-001 -4.7516707e-001 
 2.5277984e-001 -4.3128410e-001  0.0000000e+000  0.0000000e+000  0.0000000e+000 -4.8407045e-001 -4.8407045e-001 -4.8407045e-001 
 2.3565289e-001 -4.4087565e-001  0.0000000e+000  0.0000000e+000  0.0000000e+000 -4.9353895e-001 -4.9353895e-001 -4.9353895e-001 
 2.1816251e-001 -4.4978741e-001  0.0000000e+000  0.0000000e+000  0.0000000e+000 -5.0354153e-001 -5.0354153e-001 -5.0354153e-001 
 2.0033574e-001 -4.5800567e-001  0.0000000e+000  0.0000000e+000  0.0000000e+000 -5.1398098e-001 -5.1398098e-001 -5.1398098e-001 
 1.8220019e-001 -4.6551764e-001  0.0000000e+000  0.0000000e+000  0.0000000e+000 -5.2475572e-001 -5.2475572e-001 -5.2475572e-001 
 1.6378361e-001 -4.7231191e-001  0.0000000e+000  0.0000000e+000  0.0000000e+000 -5.3571784e-001 -5.3571784e-001 -5.3571784e-001 
 1.4511456e-001 -4.7837785e-001  0.0000000e+000  0.0000000e+000  0.0000000e+000 -5.4672700e-001 -5.4672700e-001 -5.4672700e-001 
 1.2622175e-001 -4.8370618e-001  0.0000000e+000  0.0000000e+000  0.0000000e+000 -5.5759645e-001 -5.5759645e-001 -5.5759645e-001 
 1.0713422e-001 -4.8828876e-001  0.0000000e+000  0.0000000e+000  0.0000000e+000 -5.6810170e-001 -5.6810170e-001 -5.6810170e-001 
 8.7881476e-002 -4.9211836e-001  0.0000000e+000  0.0000000e+000  0.0000000e+000 -5.7801169e-001 -5.7801169e-001 -5.7801169e-001 
 6.8493240e-002 -4.9518913e-001  0.0000000e+000  0.0000000e+000  0.0000000e+000 -5.8705056e-001 -5.8705056e-001 -5.8705056e-001 
 4.8999503e-002 -4.9749640e-001  0.0000000e+000  0.0000000e+000  0.0000000e+000 -5.9491771e-001 -5.9491771e-001 -5.9491771e-001 
 2.9430222e-002 -4.9903655e-001  0.0000000e+000  0.0000000e+000  0.0000000e+000 -6.0132545e-001 -6.0132545e-001 -6.0132545e-001 
 9.8154414e-003 -4.9980724e-001  0.0000000e+000  0.0000000e+000  0.0000000e+000 -6.0599738e-001 -6.0599738e-001 -6.0599738e-001 
-9.8143592e-003 -4.9980724e-001  0.0000000e+000  0.0000000e+000  0.0000000e+000 -6.0869831e-001 -6.0869831e-001 -6.0869831e-001 
-2.9429026e-002 -4.9903661e-001  0.0000000e+000  0.0000000e+000  0.0000000e+000 -6.0921735e-001 -6.0921735e-001 -6.0921735e-001 
-4.8998430e-002 -4.9749649e-001  0.0000000e+000  0.0000000e+000  0.0000000e+000 -6.0731816e-001 -6.0731816e-001 -6.0731816e-001 
-6.8492278e-002 -4.9518931e-001  0.0000000e+000  0.0000000e+000  0.0000000e+000 -6.0276353e-001 -6.0276353e-001 -6.0276353e-001 
-8.7880522e-002 -4.9211854e-001  0.0000000e+000  0.0000000e+000  0.0000000e+000 -5.9535813e-001 -5.9535813e-001 -5.9535813e-001 
-1.0713315e-001 -4.8828900e-001  0.0000000e+000  0.0000000e+000  0.0000000e+000 -5.8494031e-001 -5.8494031e-001 -5.8494031e-001 
-1.2622060e-001 -4.8370653e-001  0.0000000e+000  0.0000000e+000  0.0000000e+000 -5.7138997e-001 -5.7138997e-001 -5.7138997e-001 
-1.4511356e-001 -4.7837821e-001  0.0000000e+000  0.0000000e+000  0.0000000e+000 -5.5462760e-001 -5.5462760e-001 -5.5462760e-001 
-1.6378260e-001 -4.7231230e-001  0.0000000e+000  0.0000000e+000  0.0000000e+000 -5.3461874e-001 -5.3461874e-001 -5.3461874e-001 
-1.8219909e-001 -4.6551815e-001  0.0000000e+000  0.0000000e+000  0.0000000e+000 -5.1142126e-001 -5.1142126e-001 -5.1142126e-001 
-2.0033480e-001 -4.5800614e-001  0.0000000e+000  0.0000000e+000  0.0000000e+000 -4.8493952e-001 -4.8493952e-001 -4.8493952e-001 
-2.1816149e-001 -4.4978797e-001  0.0000000e+000  0.0000000e+000  0.0000000e+000 -4.5524764e-001 -4.5524764e-001 -4.5524764e-001 
-2.3565179e-001 -4.4087631e-001  0.0000000e+000  0.0000000e+000  0.0000000e+000 -4.2247292e-001 -4.2247292e-001 -4.2247292e-001 
-2.5277880e-001 -4.3128473e-001  0.0000000e+000  0.0000000e+000  0.0000000e+000 -3.8678256e-001 -3.8678256e-001 -3.8678256e-001 
-2.6951596e-001 -4.2102826e-001  0.0000000e+000  0.0000000e+000  0.0000000e+000 -3.4818047e-001 -3.4818047e-001 -3.4818047e-001 
-2.8583750e-001 -4.1012260e-001  0.0000000e+000  0.0000000e+000  0.0000000e+000 -3.0698237e-001 -3.0698237e-001 -3.0698237e-001 
-3.0171841e-001 -3.9858454e-001  0.0000000e+000  0.0000000e+000  0.0000000e+000 -2.6280290e-001 -2.6280290e-001 -2.6280290e-001 
-3.1713414e-001 -3.8643187e-001  0.0000000e+000  0.0000000e+000  0.0000000e+000 -2.1838377e-001 -2.1838377e-001 -2.1838377e-001 
-3.3206081e-001 -3.7368333e-001  0.0000000e+000  0.0000000e+000  0.0000000e+000 -1.7213844e-001 -1.7213844e-001 -1.7213844e-001 
-3.4647539e-001 -3.6035874e-001  0.0000000e+000  0.0000000e+000  0.0000000e+000 -1.2412280e-001 -1.2412280e-001 -1.2412280e-001 
-3.6035585e-001 -3.4647846e-001  0.0000000e+000  0.0000000e+000  0.0000000e+000 -7.5105503e-002 -7.5105503e-002 -7.5105503e-002 
-3.7368065e-001 -3.3206391e-001  0.0000000e+000  0.0000000e+000  0.0000000e+000 -2.5524627e-002 -2.5524627e-002 -2.5524627e-002 
-3.8642925e-001 -3.1713736e-001  0.0000000e+000  0.0000000e+000  0.0000000e+000  2.4488090e-002  2.4488090e-002  2.4488090e-002 
-3.9858201e-001 -3.0172181e-001  0.0000000e+000  0.0000000e+000  0.0000000e+000  7.4387014e-002  7.4387014e-002  7.4387014e-002 
-4.1012016e-001 -2.8584099e-001  0.0000000e+000  0.0000000e+000  0.0000000e+000  1.2376658e-001  1.2376658e-001  1.2376658e-001 
-4.2102593e-001 -2.6951951e-001  0.0000000e+000  0.0000000e+000  0.0000000e+000  1.7230693e-001  1.7230693e-001  1.7230693e-001 
-4.3128258e-001 -2.5278240e-001  0.0000000e+000  0.0000000e+000  0.0000000e+000  2.1964373e-001  2.1964373e-001  2.1964373e-001 
-4.4087425e-001 -2.3565550e-001  0.0000000e+000  0.0000000e+000  0.0000000e+000  2.6540560e-001  2.6540560e-001  2.6540560e-001 
-4.4978610e-001 -2.1816531e-001  0.0000000e+000  0.0000000e+000  0.0000000e+000  3.0923516e-001  3.0923516e-001  3.0923516e-001 
-4.5800442e-001 -2.0033869e-001  0.0000000e+000  0.0000000e+000  0.0000000e+000  3.5079104e-001  3.5079104e-001  3.5079104e-001 
-4.6551651e-001 -1.8220320e-001  0.0000000e+000  0.0000000e+000  0.0000000e+000  3.8973865e-001  3.8973865e-001  3.8973865e-001 
-4.7231084e-001 -1.6378674e-001  0.0000000e+000  0.0000000e+000  0.0000000e+000  4.2577606e-001  4.2577606e-001  4.2577606e-001 
-4.7837695e-001 -1.4511774e-001  0.0000000e+000  0.0000000e+000  0.0000000e+000  4.5862436e-001  4.5862436e-001  4.5862436e-001 
-4.8370540e-001 -1.2622495e-001  0.0000000e+000  0.0000000e+000  0.0000000e+000  4.8803300e-001  4.8803300e-001  4.8803300e-001 
-4.8828799e-001 -1.0713753e-001  0.0000000e+000  0.0000000e+000  0.0000000e+000  5.1377451e-001  5.1377451e-001  5.1377451e-001 
-4.9211776e-001 -8.7884970e-002  0.0000000e+000  0.0000000e+000  0.0000000e+000  5.3565437e-001  5.3565437e-001  5.3565437e-001 
-4.9518871e-001 -6.8496875e-002  0.0000000e+000  0.0000000e+000  0.0000000e+000  5.5350614e-001  5.5350614e-001  5.5350614e-001 
-4.9749610e-001 -4.9003161e-002  0.0000000e+000  0.0000000e+000  0.0000000e+000  5.6719714e-001  5.6719714e-001  5.6719714e-001 
-4.9903637e-001 -2.9433891e-002  0.0000000e+000  0.0000000e+000  0.0000000e+000  5.7663012e-001  5.7663012e-001  5.7663012e-001 
-4.9980718e-001 -9.8170647e-003  0.0000000e+000  0.0000000e+000  0.0000000e+000  5.8174896e-001  5.8174896e-001  5.8174896e-001 
-5.0000000e-001  0.0000000e+000  0.0000000e+000  0.0000000e+000  0.0000000e+000  5.8430868e-001  5.8430868e-001  5.8430868e-001 
-5.2504581e-001  0.0000000e+000  1.5802328e-002 -2.1881433e-003  1.5953103e-002  5.6728327e-001  5.6728327e-001  5.6741053e-001 
-5.2484339e-001  1.0306715e-002  1.5751563e-002  1.1201532e-002  1.9328374e-002  5.6767821e-001  5.6767821e-001  5.6786501e-001 
-5.2403414e-001  3.0904025e-002  1.7686252e-002  3.7853036e-002  4.1781045e-002  5.6426948e-001  5.6426948e-001  5.6514233e-001 
-5.2241683e-001  5.1453456e-002  2.1636855e-002  6.4143993e-002  6.7694940e-002  5.5668986e-001  5.5668986e-001  5.5898118e-001 
-5.1999402e-001  7.1923792e-002  2.7557921e-002  8.9842722e-002  9.3974218e-002  5.4500556e-001  5.4500556e-001  5.4942113e-001 
-5.1676935e-001  9.2283443e-002  3.5380375e-002  1.1472258e-001  1.2005433e-001  5.2931774e-001  5.2931774e-001  5.3652424e-001 
-5.1274794e-001  1.1250058e-001  4.5014244e-002  1.3856384e-001  1.4569221e-001  5.0976163e-001  5.0976163e-001  5.2037472e-001 
-5.0793594e-001  1.3254401e-001  5.6335166e-002  1.6115840e-001  1.7072105e-001  4.8650366e-001  4.8650366e-001  5.0107652e-001 
-5.0234067e-001  1.5238327e-001  6.9201306e-002  1.8231100e-001  1.9500287e-001  4.5973995e-001  4.5973995e-001  4.7875300e-001 
-4.9597073e-001  1.7198785e-001  8.3452553e-002  2.0184150e-001  2.1841319e-001  4.2969519e-001  4.2969519e-001  4.5354736e-001 
-4.8883617e-001  1.9132701e-001  9.8910898e-002  2.1958549e-001  2.4083430e-001  3.9661959e-001  3.9661959e-001  4.2562017e-001 
-4.8094791e-001  2.1037090e-001  1.1537978e-001  2.3539755e-001  2.6215357e-001  3.6078882e-001  3.6078882e-001  3.9515108e-001 
-4.7231796e-001  2.2909063e-001  1.3264668e-001  2.4915619e-001  2.8226575e-001  3.2249996e-001  3.2249996e-001  3.6233693e-001 
-4.6295968e-001  2.4745733e-001  1.5048905e-001  2.6076111e-001  3.0107027e-001  2.8206560e-001  2.8206560e-001  3.2738724e-001 
-4.5288762e-001  2.6544231e-001  1.6867465e-001  2.7013257e-001  3.1846938e-001  2.3981930e-001  2.3981930e-001  2.9053068e-001 
-4.4211736e-001  2.8301775e-001  1.8696591e-001  2.7721599e-001  3.3437249e-001  1.9611211e-001  1.9611211e-001  2.5201458e-001 
-4.3066528e-001  3.0015698e-001  2.0512035e-001  2.8198332e-001  3.4869608e-001  1.5130207e-001  1.5130207e-001  2.1209654e-001 
-4.1854897e-001  3.1683356e-001  2.2290134e-001  2.8442848e-001  3.6136487e-001  1.0575239e-001  1.0575239e-001  1.7104468e-001 
-4.0578747e-001  3.3302146e-001  2.4008155e-001  2.8454834e-001  3.7229949e-001  5.9796728e-002  5.9796728e-002  1.2910019e-001 
-3.9240041e-001  3.4869573e-001  2.5639388e-001  2.8247687e-001  3.8148525e-001  1.3825661e-002  1.3825661e-002  8.6591162e-002 
-3.7840819e-001  3.6383247e-001  2.7161857e-001  2.7824521e-001  3.8884065e-001 -3.1736005e-002 -3.1736005e-002  4.3862518e-002 
-3.6383229e-001  3.7840837e-001  2.8552613e-001  2.7196524e-001  3.9432254e-001 -7.6647662e-002 -7.6647662e-002  1.0974675e-003 
-3.4869552e-001  3.9240062e-001  2.9789382e-001  2.6374781e-001  3.9787391e-001 -1.2045889e-001 -1.2045889e-001 -4.1307073e-002 
-3.3302128e-001  4.0578768e-001  3.0861905e-001  2.5386131e-001  3.9961392e-001 -1.6258228e-001 -1.6258228e-001 -8.2736634e-002 
-3.1683335e-001  4.1854918e-001  3.1769618e-001  2.4230590e-001  3.9955351e-001 -2.0336615e-001 -2.0336615e-001 -1.2354464e-001 
-3.0015671e-001  4.3066543e-001  3.2479882e-001  2.2908188e-001  3.9745790e-001 -2.4260780e-001 -2.4260780e-001 -1.6362141e-001 
-2.8301749e-001  4.4211751e-001  3.2964396e-001  2.1461068e-001  3.9334831e-001 -2.7917802e-001 -2.7917802e-001 -2.0181657e-001 
-2.6544201e-001  4.5288780e-001  3.3225751e-001  1.9919463e-001  3.8739327e-001 -3.1313539e-001 -3.1313539e-001 -2.3809861e-001 
-2.4745707e-001  4.6295986e-001  3.3260393e-001  1.8301667e-001  3.7963203e-001 -3.4442279e-001 -3.4442279e-001 -2.7236256e-001 
-2.2909039e-001  4.7231817e-001  3.3073047e-001  1.6627549e-001  3.7017587e-001 -3.7282223e-001 -3.7282223e-001 -3.0430713e-001 
-2.1037063e-001  4.8094803e-001  3.2653454e-001  1.4926352e-001  3.5903260e-001 -3.9819235e-001 -3.9819235e-001 -3.3374014e-001 
-1.9132671e-001  4.8883629e-001  3.2009855e-001  1.3219082e-001  3.4631994e-001 -4.2041668e-001 -4.2041668e-001 -3.6044794e-001 
-1.7198756e-001  4.9597090e-001  3.1154138e-001  1.1524891e-001  3.3217517e-001 -4.3946257e-001 -4.3946257e-001 -3.8429239e-001 
-1.5238300e-001  5.0234073e-001  3.0096853e-001  9.8696582e-002  3.1673816e-001 -4.5534572e-001 -4.5534572e-001 -4.0518418e-001 
-1.3254370e-001  5.0793600e-001  2.8852084e-001  8.2767770e-002  3.0015793e-001 -4.6809489e-001 -4.6809489e-001 -4.2304748e-001 
-1.1250028e-001  5.1274806e-001  2.7438533e-001  6.7650497e-002  2.8260201e-001 -4.7777247e-001 -4.7777247e-001 -4.3784052e-001 
-9.2283152e-002  5.1676941e-001  2.5877887e-001  5.3524435e-002  2.6425627e-001 -4.8450303e-001 -4.8450303e-001 -4.4958735e-001 
-7.1923614e-002  5.1999402e-001  2.4194396e-001  4.0543023e-002  2.4531737e-001 -4.8843998e-001 -4.8843998e-001 -4.5834967e-001 
-5.1453285e-002  5.2241683e-001  2.2414345e-001  2.8828293e-002  2.2598973e-001 -4.8977730e-001 -4.8977730e-001 -4.6424162e-001 
-3.0903623e-002  5.2403414e-001  2.0565024e-001  1.8475544e-002  2.0647849e-001 -4.8874068e-001 -4.8874068e-001 -4.6742401e-001 
-1.0306302e-002  5.2484339e-001  1.8674006e-001  9.5519293e-003  1.8698420e-001 -4.8557937e-001 -4.8557937e-001 -4.6809784e-001 
 1.0306913e-002  5.2484339e-001  1.6769199e-001  2.0962083e-003  1.6770509e-001 -4.8053342e-001 -4.8053342e-001 -4.6647093e-001 
 3.0904226e-002  5.2403414e-001  1.4877108e-001 -3.8868252e-003  1.4882185e-001 -4.7385722e-001 -4.7385722e-001 -4.6278325e-001 
 5.1453888e-002  5.2241683e-001  1.3023853e-001 -8.4362114e-003  1.3051148e-001 -4.6582964e-001 -4.6582964e-001 -4.5731303e-001 
 7.1924217e-002  5.1999396e-001  1.1233553e-001 -1.1630830e-002  1.1293603e-001 -4.5672610e-001 -4.5672610e-001 -4.5034882e-001 
 9.2283644e-002  5.1676929e-001  9.5274858e-002 -1.3584152e-002  9.6238390e-002 -4.4681671e-001 -4.4681671e-001 -4.4218579e-001 
 1.1250077e-001  5.1274788e-001  7.9232946e-002 -1.4428093e-002  8.0535889e-002 -4.3635565e-001 -4.3635565e-001 -4.3311262e-001 
 1.3254446e-001  5.0793576e-001  6.4349584e-002 -1.4309403e-002  6.5921381e-002 -4.2557725e-001 -4.2557725e-001 -4.2340443e-001 
 1.5238373e-001  5.0234056e-001  5.0729007e-002 -1.3372082e-002  5.2461840e-002 -4.1468936e-001 -4.1468936e-001 -4.1331324e-001 
 1.7198803e-001  4.9597070e-001  3.8439702e-002 -1.1749567e-002  4.0195312e-002 -4.0387312e-001 -4.0387312e-001 -4.0306529e-001 
 1.9132717e-001  4.8883608e-001  2.7515016e-002 -9.5926067e-003  2.9139221e-002 -3.9327970e-001 -3.9327970e-001 -3.9285517e-001 
 2.1037130e-001  4.8094773e-001  1.7960021e-002 -7.0667914e-003  1.9300308e-002 -3.8302574e-001 -3.8302574e-001 -3.8283947e-001 
 2.2909102e-001  4.7231781e-001  9.7547472e-003 -4.3150596e-003  1.0666529e-002 -3.7321553e-001 -3.7321553e-001 -3.7315863e-001 
 2.4745752e-001  4.6295959e-001  2.8513719e-003 -1.4667349e-003  3.2064985e-003 -3.6392251e-001 -3.6392251e-001 -3.6391738e-001 
 2.6544243e-001  4.5288754e-001 -2.8167162e-003  1.3568576e-003  3.1264920e-003 -3.5519531e-001 -3.5519531e-001 -3.5519043e-001 
 2.8301811e-001  4.4211715e-001 -7.3268958e-003  4.0530842e-003  8.3732251e-003 -3.4707126e-001 -3.4707126e-001 -3.4703621e-001 
 3.0015737e-001  4.3066505e-001 -1.0771161e-002  6.5312870e-003  1.2596651e-002 -3.3957830e-001 -3.3957830e-001 -3.3949897e-001 
 3.1683379e-001  4.1854888e-001 -1.3251113e-002  8.7210676e-003  1.5863448e-002 -3.3273518e-001 -3.3273518e-001 -3.3260936e-001 
 3.3302167e-001  4.0578738e-001 -1.4875707e-002  1.0575883e-002  1.8252013e-002 -3.2655802e-001 -3.2655802e-001 -3.2639146e-001 
 3.4869608e-001  3.9240015e-001 -1.5761441e-002  1.2072965e-002  1.9853953e-002 -3.2105845e-001 -3.2105845e-001 -3.2086137e-001 
 3.6383277e-001  3.7840784e-001 -1.6024034e-002  1.3214170e-002  2.0769784e-002 -3.1623596e-001 -3.1623596e-001 -3.1602028e-001 
 3.7840849e-001  3.6383209e-001 -1.5782185e-002  1.4017657e-002  2.1108579e-002 -3.1208232e-001 -3.1208232e-001 -3.1185955e-001 
 3.9240077e-001  3.4869534e-001 -1.5174484e-002  1.4522984e-002  2.1004334e-002 -3.0865166e-001 -3.0865166e-001 -3.0843106e-001 
 4.0578800e-001  3.3302093e-001 -1.4309219e-002  1.4806237e-002  2.0590736e-002 -3.0586198e-001 -3.0586198e-001 -3.0565000e-001 
 4.1854951e-001  3.1683302e-001 -1.3281836e-002  1.4926489e-002  1.9980172e-002 -3.0368641e-001 -3.0368641e-001 -3.0348679e-001 
 4.3066561e-001  3.0015659e-001 -1.2177204e-002  1.4941855e-002  1.9275459e-002 -3.0208319e-001 -3.0208319e-001 -3.0189744e-001 
 4.4211763e-001  2.8301734e-001 -1.1060012e-002  1.4901764e-002  1.8557651e-002 -3.0099699e-001 -3.0099699e-001 -3.0082479e-001 
 4.5288801e-001  2.6544169e-001 -9.9745616e-003  1.4836593e-002  1.7877817e-002 -3.0036423e-001 -3.0036423e-001 -3.0020443e-001 
 4.6296006e-001  2.4745670e-001 -8.9502018e-003  1.4747800e-002  1.7251195e-002 -3.0011821e-001 -3.0011821e-001 -2.9996940e-001 