Variables = "x","y", "Velocity_x", "Velocity_y", "Velocity_whole value", "Pressure", "Absolute pressure", "Total pressure"
Zone i=162, j=42
-5.0000000e-001  0.0000000e+000  0.0000000e+000  0.0000000e+000  0.0000000e+000  5.8466995e-001  5.8466995e-001  5.8466995e-001 
-4.9980724e-001  9.8150698e-003  0.0000000e+000  0.0000000e+000  0.0000000e+000  5.8158290e-001  5.8158290e-001  5.8158290e-001 
-4.9903661e-001  2.9429846e-002  0.0000000e+000  0.0000000e+000  0.0000000e+000  5.7540888e-001  5.7540888e-001  5.7540888e-001 
-4.9749649e-001  4.8999012e-002  0.0000000e+000  0.0000000e+000  0.0000000e+000  5.6492198e-001  5.6492198e-001  5.6492198e-001 
-4.9518925e-001  6.8492860e-002  0.0000000e+000  0.0000000e+000  0.0000000e+000  5.5019081e-001  5.5019081e-001  5.5019081e-001 
-4.9211842e-001  8.7881342e-002  0.0000000e+000  0.0000000e+000  0.0000000e+000  5.3131628e-001  5.3131628e-001  5.3131628e-001 
-4.8828882e-001  1.0713406e-001  0.0000000e+000  0.0000000e+000  0.0000000e+000  5.0843650e-001  5.0843650e-001  5.0843650e-001 
-4.8370636e-001  1.2622136e-001  0.0000000e+000  0.0000000e+000  0.0000000e+000  4.8172146e-001  4.8172146e-001  4.8172146e-001 
-4.7837794e-001  1.4511424e-001  0.0000000e+000  0.0000000e+000  0.0000000e+000  4.5137221e-001  4.5137221e-001  4.5137221e-001 
-4.7231191e-001  1.6378364e-001  0.0000000e+000  0.0000000e+000  0.0000000e+000  4.1761890e-001  4.1761890e-001  4.1761890e-001 
-4.6551770e-001  1.8220030e-001  0.0000000e+000  0.0000000e+000  0.0000000e+000  3.8071790e-001  3.8071790e-001  3.8071790e-001 
-4.5800573e-001  2.0033574e-001  0.0000000e+000  0.0000000e+000  0.0000000e+000  3.4095567e-001  3.4095567e-001  3.4095567e-001 
-4.4978741e-001  2.1816251e-001  0.0000000e+000  0.0000000e+000  0.0000000e+000  2.9864889e-001  2.9864889e-001  2.9864889e-001 
-4.4087553e-001  2.3565310e-001  0.0000000e+000  0.0000000e+000  0.0000000e+000  2.5412446e-001  2.5412446e-001  2.5412446e-001 
-4.3128395e-001  2.5278014e-001  0.0000000e+000  0.0000000e+000  0.0000000e+000  2.0772810e-001  2.0772810e-001  2.0772810e-001 
-4.2102742e-001  2.6951718e-001  0.0000000e+000  0.0000000e+000  0.0000000e+000  1.5982653e-001  1.5982653e-001  1.5982653e-001 
-4.1012165e-001  2.8583884e-001  0.0000000e+000  0.0000000e+000  0.0000000e+000  1.1079068e-001  1.1079068e-001  1.1079068e-001 
-3.9858329e-001  3.0171996e-001  0.0000000e+000  0.0000000e+000  0.0000000e+000  6.0988229e-002  6.0988229e-002  6.0988229e-002 
-3.8643056e-001  3.1713563e-001  0.0000000e+000  0.0000000e+000  0.0000000e+000  1.0753259e-002  1.0753259e-002  1.0753259e-002 
-3.7368208e-001  3.3206218e-001  0.0000000e+000  0.0000000e+000  0.0000000e+000 -3.9480332e-002 -3.9480332e-002 -3.9480332e-002 
-3.6035728e-001  3.4647691e-001  0.0000000e+000  0.0000000e+000  0.0000000e+000 -8.9233108e-002 -8.9233108e-002 -8.9233108e-002 
-3.4647670e-001  3.6035752e-001  0.0000000e+000  0.0000000e+000  0.0000000e+000 -1.3832842e-001 -1.3832842e-001 -1.3832842e-001 
-3.3206201e-001  3.7368232e-001  0.0000000e+000  0.0000000e+000  0.0000000e+000 -1.8627237e-001 -1.8627237e-001 -1.8627237e-001 
-3.1713545e-001  3.8643074e-001  0.0000000e+000  0.0000000e+000  0.0000000e+000 -2.3222890e-001 -2.3222890e-001 -2.3222890e-001 
-3.0171975e-001  3.9858350e-001  0.0000000e+000  0.0000000e+000  0.0000000e+000 -2.7679133e-001 -2.7679133e-001 -2.7679133e-001 
-2.8583866e-001  4.1012180e-001  0.0000000e+000  0.0000000e+000  0.0000000e+000 -3.2063681e-001 -3.2063681e-001 -3.2063681e-001 
-2.6951694e-001  4.2102760e-001  0.0000000e+000  0.0000000e+000  0.0000000e+000 -3.6119670e-001 -3.6119670e-001 -3.6119670e-001 
-2.5277984e-001  4.3128410e-001  0.0000000e+000  0.0000000e+000  0.0000000e+000 -3.9902171e-001 -3.9902171e-001 -3.9902171e-001 
-2.3565285e-001  4.4087571e-001  0.0000000e+000  0.0000000e+000  0.0000000e+000 -4.3396908e-001 -4.3396908e-001 -4.3396908e-001 
-2.1816230e-001  4.4978762e-001  0.0000000e+000  0.0000000e+000  0.0000000e+000 -4.6589470e-001 -4.6589470e-001 -4.6589470e-001 
-2.0033550e-001  4.5800579e-001  0.0000000e+000  0.0000000e+000  0.0000000e+000 -4.9460945e-001 -4.9460945e-001 -4.9460945e-001 
-1.8220000e-001  4.6551776e-001  0.0000000e+000  0.0000000e+000  0.0000000e+000 -5.1999831e-001 -5.1999831e-001 -5.1999831e-001 
-1.6378340e-001  4.7231200e-001  0.0000000e+000  0.0000000e+000  0.0000000e+000 -5.4199678e-001 -5.4199678e-001 -5.4199678e-001 
-1.4511400e-001  4.7837806e-001  0.0000000e+000  0.0000000e+000  0.0000000e+000 -5.6070375e-001 -5.6070375e-001 -5.6070375e-001 
-1.2622105e-001  4.8370641e-001  0.0000000e+000  0.0000000e+000  0.0000000e+000 -5.7607263e-001 -5.7607263e-001 -5.7607263e-001 
-1.0713376e-001  4.8828888e-001  0.0000000e+000  0.0000000e+000  0.0000000e+000 -5.8812910e-001 -5.8812910e-001 -5.8812910e-001 
-8.7881044e-002  4.9211848e-001  0.0000000e+000  0.0000000e+000  0.0000000e+000 -5.9696764e-001 -5.9696764e-001 -5.9696764e-001 
-6.8492696e-002  4.9518925e-001  0.0000000e+000  0.0000000e+000  0.0000000e+000 -6.0271889e-001 -6.0271889e-001 -6.0271889e-001 
-4.8998840e-002  4.9749649e-001  0.0000000e+000  0.0000000e+000  0.0000000e+000 -6.0556281e-001 -6.0556281e-001 -6.0556281e-001 
-2.9429436e-002  4.9903661e-001  0.0000000e+000  0.0000000e+000  0.0000000e+000 -6.0570592e-001 -6.0570592e-001 -6.0570592e-001 
-9.8146517e-003  4.9980724e-001  0.0000000e+000  0.0000000e+000  0.0000000e+000 -6.0340148e-001 -6.0340148e-001 -6.0340148e-001 
 9.8152636e-003  4.9980724e-001  0.0000000e+000  0.0000000e+000  0.0000000e+000 -5.9887302e-001 -5.9887302e-001 -5.9887302e-001 
 2.9430045e-002  4.9903661e-001  0.0000000e+000  0.0000000e+000  0.0000000e+000 -5.9234524e-001 -5.9234524e-001 -5.9234524e-001 
 4.8999451e-002  4.9749646e-001  0.0000000e+000  0.0000000e+000  0.0000000e+000 -5.8408797e-001 -5.8408797e-001 -5.8408797e-001 
 6.8493299e-002  4.9518913e-001  0.0000000e+000  0.0000000e+000  0.0000000e+000 -5.7439238e-001 -5.7439238e-001 -5.7439238e-001 
 8.7881535e-002  4.9211836e-001  0.0000000e+000  0.0000000e+000  0.0000000e+000 -5.6357235e-001 -5.6357235e-001 -5.6357235e-001 
 1.0713425e-001  4.8828876e-001  0.0000000e+000  0.0000000e+000  0.0000000e+000 -5.5193996e-001 -5.5193996e-001 -5.5193996e-001 
 1.2622181e-001  4.8370618e-001  0.0000000e+000  0.0000000e+000  0.0000000e+000 -5.3977710e-001 -5.3977710e-001 -5.3977710e-001 
 1.4511469e-001  4.7837785e-001  0.0000000e+000  0.0000000e+000  0.0000000e+000 -5.2732158e-001 -5.2732158e-001 -5.2732158e-001 
 1.6378385e-001  4.7231185e-001  0.0000000e+000  0.0000000e+000  0.0000000e+000 -5.1480168e-001 -5.1480168e-001 -5.1480168e-001 
 1.8220049e-001  4.6551755e-001  0.0000000e+000  0.0000000e+000  0.0000000e+000 -5.0241005e-001 -5.0241005e-001 -5.0241005e-001 
 2.0033616e-001  4.5800549e-001  0.0000000e+000  0.0000000e+000  0.0000000e+000 -4.9029723e-001 -4.9029723e-001 -4.9029723e-001 
 2.1816289e-001  4.4978726e-001  0.0000000e+000  0.0000000e+000  0.0000000e+000 -4.7861665e-001 -4.7861665e-001 -4.7861665e-001 
 2.3565331e-001  4.4087544e-001  0.0000000e+000  0.0000000e+000  0.0000000e+000 -4.6747783e-001 -4.6747783e-001 -4.6747783e-001 
 2.5278032e-001  4.3128383e-001  0.0000000e+000  0.0000000e+000  0.0000000e+000 -4.5697400e-001 -4.5697400e-001 -4.5697400e-001 
 2.6951754e-001  4.2102724e-001  0.0000000e+000  0.0000000e+000  0.0000000e+000 -4.4718179e-001 -4.4718179e-001 -4.4718179e-001 
 2.8583926e-001  4.1012138e-001  0.0000000e+000  0.0000000e+000  0.0000000e+000 -4.3815574e-001 -4.3815574e-001 -4.3815574e-001 
 3.0172014e-001  3.9858320e-001  0.0000000e+000  0.0000000e+000  0.0000000e+000 -4.2993844e-001 -4.2993844e-001 -4.2993844e-001 
 3.1713587e-001  3.8643044e-001  0.0000000e+000  0.0000000e+000  0.0000000e+000 -4.2255452e-001 -4.2255452e-001 -4.2255452e-001 
 3.3206254e-001  3.7368178e-001  0.0000000e+000  0.0000000e+000  0.0000000e+000 -4.1600904e-001 -4.1600904e-001 -4.1600904e-001 
 3.4647721e-001  3.6035699e-001  0.0000000e+000  0.0000000e+000  0.0000000e+000 -4.1029018e-001 -4.1029018e-001 -4.1029018e-001 
 3.6035764e-001  3.4647655e-001  0.0000000e+000  0.0000000e+000  0.0000000e+000 -4.0535772e-001 -4.0535772e-001 -4.0535772e-001 
 3.7368244e-001  3.3206183e-001  0.0000000e+000  0.0000000e+000  0.0000000e+000 -4.0114185e-001 -4.0114185e-001 -4.0114185e-001 
 3.8643104e-001  3.1713516e-001  0.0000000e+000  0.0000000e+000  0.0000000e+000 -3.9754981e-001 -3.9754981e-001 -3.9754981e-001 
 3.9858380e-001  3.0171940e-001  0.0000000e+000  0.0000000e+000  0.0000000e+000 -3.9446822e-001 -3.9446822e-001 -3.9446822e-001 
 4.1012195e-001  2.8583845e-001  0.0000000e+000  0.0000000e+000  0.0000000e+000 -3.9176744e-001 -3.9176744e-001 -3.9176744e-001 
 4.2102772e-001  2.6951680e-001  0.0000000e+000  0.0000000e+000  0.0000000e+000 -3.8930878e-001 -3.8930878e-001 -3.8930878e-001 
 4.3128431e-001  2.5277954e-001  0.0000000e+000  0.0000000e+000  0.0000000e+000 -3.8695168e-001 -3.8695168e-001 -3.8695168e-001 
 4.4087589e-001  2.3565251e-001  0.0000000e+000  0.0000000e+000  0.0000000e+000 -3.8455927e-001 -3.8455927e-001 -3.8455927e-001 
 4.4978765e-001  2.1816209e-001  0.0000000e+000  0.0000000e+000  0.0000000e+000 -3.8201594e-001 -3.8201594e-001 -3.8201594e-001 
 4.5800591e-001  2.0033529e-001  0.0000000e+000  0.0000000e+000  0.0000000e+000 -3.7922353e-001 -3.7922353e-001 -3.7922353e-001 
 4.6551794e-001  1.8219960e-001  0.0000000e+000  0.0000000e+000  0.0000000e+000 -3.7610641e-001 -3.7610641e-001 -3.7610641e-001 
 4.7231215e-001  1.6378300e-001  0.0000000e+000  0.0000000e+000  0.0000000e+000 -3.7261540e-001 -3.7261540e-001 -3.7261540e-001 
 4.7837809e-001  1.4511386e-001  0.0000000e+000  0.0000000e+000  0.0000000e+000 -3.6872533e-001 -3.6872533e-001 -3.6872533e-001 
 4.8370644e-001  1.2622090e-001  0.0000000e+000  0.0000000e+000  0.0000000e+000 -3.6443841e-001 -3.6443841e-001 -3.6443841e-001 
 4.8828891e-001  1.0713334e-001  0.0000000e+000  0.0000000e+000  0.0000000e+000 -3.5978311e-001 -3.5978311e-001 -3.5978311e-001 
 4.9211851e-001  8.7880611e-002  0.0000000e+000  0.0000000e+000  0.0000000e+000 -3.5481253e-001 -3.5481253e-001 -3.5481253e-001 
 4.9518931e-001  6.8492368e-002  0.0000000e+000  0.0000000e+000  0.0000000e+000 -3.4961724e-001 -3.4961724e-001 -3.4961724e-001 
 4.9749649e-001  4.8998520e-002  0.0000000e+000  0.0000000e+000  0.0000000e+000 -3.4426785e-001 -3.4426785e-001 -3.4426785e-001 
 4.9903661e-001  2.9429115e-002  0.0000000e+000  0.0000000e+000  0.0000000e+000 -3.3887896e-001 -3.3887896e-001 -3.3887896e-001 
 4.9980724e-001  9.8146452e-003  0.0000000e+000  0.0000000e+000  0.0000000e+000 -3.3356097e-001 -3.3356097e-001 -3.3356097e-001 
 4.9980724e-001 -9.8149152e-003  0.0000000e+000  0.0000000e+000  0.0000000e+000 -3.2842609e-001 -3.2842609e-001 -3.2842609e-001 
 4.9903661e-001 -2.9429652e-002  0.0000000e+000  0.0000000e+000  0.0000000e+000 -3.2358596e-001 -3.2358596e-001 -3.2358596e-001 
 4.9749646e-001 -4.8999056e-002  0.0000000e+000  0.0000000e+000  0.0000000e+000 -3.1914452e-001 -3.1914452e-001 -3.1914452e-001 
 4.9518919e-001 -6.8492912e-002  0.0000000e+000  0.0000000e+000  0.0000000e+000 -3.1519571e-001 -3.1519571e-001 -3.1519571e-001 
 4.9211848e-001 -8.7881148e-002  0.0000000e+000  0.0000000e+000  0.0000000e+000 -3.1181899e-001 -3.1181899e-001 -3.1181899e-001 
 4.8828888e-001 -1.0713386e-001  0.0000000e+000  0.0000000e+000  0.0000000e+000 -3.0908006e-001 -3.0908006e-001 -3.0908006e-001 
 4.8370630e-001 -1.2622139e-001  0.0000000e+000  0.0000000e+000  0.0000000e+000 -3.0702400e-001 -3.0702400e-001 -3.0702400e-001 
 4.7837794e-001 -1.4511435e-001  0.0000000e+000  0.0000000e+000  0.0000000e+000 -3.0567974e-001 -3.0567974e-001 -3.0567974e-001 
 4.7231200e-001 -1.6378349e-001  0.0000000e+000  0.0000000e+000  0.0000000e+000 -3.0506033e-001 -3.0506033e-001 -3.0506033e-001 
 4.6551776e-001 -1.8220010e-001  0.0000000e+000  0.0000000e+000  0.0000000e+000 -3.0516276e-001 -3.0516276e-001 -3.0516276e-001 
 4.5800573e-001 -2.0033580e-001  0.0000000e+000  0.0000000e+000  0.0000000e+000 -3.0596969e-001 -3.0596969e-001 -3.0596969e-001 
 4.4978744e-001 -2.1816260e-001  0.0000000e+000  0.0000000e+000  0.0000000e+000 -3.0745149e-001 -3.0745149e-001 -3.0745149e-001 
 4.4087565e-001 -2.3565295e-001  0.0000000e+000  0.0000000e+000  0.0000000e+000 -3.0956861e-001 -3.0956861e-001 -3.0956861e-001 
 4.3128407e-001 -2.5277996e-001  0.0000000e+000  0.0000000e+000  0.0000000e+000 -3.1227344e-001 -3.1227344e-001 -3.1227344e-001 
 4.2102745e-001 -2.6951724e-001  0.0000000e+000  0.0000000e+000  0.0000000e+000 -3.1551549e-001 -3.1551549e-001 -3.1551549e-001 
 4.1012165e-001 -2.8583896e-001  0.0000000e+000  0.0000000e+000  0.0000000e+000 -3.1924182e-001 -3.1924182e-001 -3.1924182e-001 
 3.9858347e-001 -3.0171984e-001  0.0000000e+000  0.0000000e+000  0.0000000e+000 -3.2340074e-001 -3.2340074e-001 -3.2340074e-001 
 3.8643065e-001 -3.1713557e-001  0.0000000e+000  0.0000000e+000  0.0000000e+000 -3.2795331e-001 -3.2795331e-001 -3.2795331e-001 
 3.7368205e-001 -3.3206224e-001  0.0000000e+000  0.0000000e+000  0.0000000e+000 -3.3286816e-001 -3.3286816e-001 -3.3286816e-001 
 3.6035725e-001 -3.4647691e-001  0.0000000e+000  0.0000000e+000  0.0000000e+000 -3.3815706e-001 -3.3815706e-001 -3.3815706e-001 
 3.4647679e-001 -3.6035734e-001  0.0000000e+000  0.0000000e+000  0.0000000e+000 -3.4378341e-001 -3.4378341e-001 -3.4378341e-001 
 3.3206213e-001 -3.7368214e-001  0.0000000e+000  0.0000000e+000  0.0000000e+000 -3.4976113e-001 -3.4976113e-001 -3.4976113e-001 
 3.1713545e-001 -3.8643074e-001  0.0000000e+000  0.0000000e+000  0.0000000e+000 -3.5611343e-001 -3.5611343e-001 -3.5611343e-001 
 3.0171970e-001 -3.9858353e-001  0.0000000e+000  0.0000000e+000  0.0000000e+000 -3.6286822e-001 -3.6286822e-001 -3.6286822e-001 
 2.8583875e-001 -4.1012174e-001  0.0000000e+000  0.0000000e+000  0.0000000e+000 -3.7005585e-001 -3.7005585e-001 -3.7005585e-001 
 2.6951712e-001 -4.2102748e-001  0.0000000e+000  0.0000000e+000  0.0000000e+000 -3.7769961e-001 -3.7769961e-001 -3.7769961e-001 
 2.5277984e-001 -4.3128410e-001  0.0000000e+000  0.0000000e+000  0.0000000e+000 -3.8581643e-001 -3.8581643e-001 -3.8581643e-001 
 2.3565289e-001 -4.4087565e-001  0.0000000e+000  0.0000000e+000  0.0000000e+000 -3.9441532e-001 -3.9441532e-001 -3.9441532e-001 
 2.1816251e-001 -4.4978741e-001  0.0000000e+000  0.0000000e+000  0.0000000e+000 -4.0348205e-001 -4.0348205e-001 -4.0348205e-001 
 2.0033574e-001 -4.5800567e-001  0.0000000e+000  0.0000000e+000  0.0000000e+000 -4.1297275e-001 -4.1297275e-001 -4.1297275e-001 
 1.8220019e-001 -4.6551764e-001  0.0000000e+000  0.0000000e+000  0.0000000e+000 -4.2282444e-001 -4.2282444e-001 -4.2282444e-001 
 1.6378361e-001 -4.7231191e-001  0.0000000e+000  0.0000000e+000  0.0000000e+000 -4.3292871e-001 -4.3292871e-001 -4.3292871e-001 
 1.4511456e-001 -4.7837785e-001  0.0000000e+000  0.0000000e+000  0.0000000e+000 -4.4317073e-001 -4.4317073e-001 -4.4317073e-001 
 1.2622175e-001 -4.8370618e-001  0.0000000e+000  0.0000000e+000  0.0000000e+000 -4.5339370e-001 -4.5339370e-001 -4.5339370e-001 
 1.0713422e-001 -4.8828876e-001  0.0000000e+000  0.0000000e+000  0.0000000e+000 -4.6340814e-001 -4.6340814e-001 -4.6340814e-001 
 8.7881476e-002 -4.9211836e-001  0.0000000e+000  0.0000000e+000  0.0000000e+000 -4.7301143e-001 -4.7301143e-001 -4.7301143e-001 
 6.8493240e-002 -4.9518913e-001  0.0000000e+000  0.0000000e+000  0.0000000e+000 -4.8195627e-001 -4.8195627e-001 -4.8195627e-001 
 4.8999503e-002 -4.9749640e-001  0.0000000e+000  0.0000000e+000  0.0000000e+000 -4.8996112e-001 -4.8996112e-001 -4.8996112e-001 
 2.9430222e-002 -4.9903655e-001  0.0000000e+000  0.0000000e+000  0.0000000e+000 -4.9673820e-001 -4.9673820e-001 -4.9673820e-001 
 9.8154414e-003 -4.9980724e-001  0.0000000e+000  0.0000000e+000  0.0000000e+000 -5.0201297e-001 -5.0201297e-001 -5.0201297e-001 
-9.8143592e-003 -4.9980724e-001  0.0000000e+000  0.0000000e+000  0.0000000e+000 -5.0553286e-001 -5.0553286e-001 -5.0553286e-001 
-2.9429026e-002 -4.9903661e-001  0.0000000e+000  0.0000000e+000  0.0000000e+000 -5.0707978e-001 -5.0707978e-001 -5.0707978e-001 
-4.8998430e-002 -4.9749649e-001  0.0000000e+000  0.0000000e+000  0.0000000e+000 -5.0643504e-001 -5.0643504e-001 -5.0643504e-001 
-6.8492278e-002 -4.9518931e-001  0.0000000e+000  0.0000000e+000  0.0000000e+000 -5.0335854e-001 -5.0335854e-001 -5.0335854e-001 
-8.7880522e-002 -4.9211854e-001  0.0000000e+000  0.0000000e+000  0.0000000e+000 -4.9764043e-001 -4.9764043e-001 -4.9764043e-001 
-1.0713315e-001 -4.8828900e-001  0.0000000e+000  0.0000000e+000  0.0000000e+000 -4.8910341e-001 -4.8910341e-001 -4.8910341e-001 
-1.2622060e-001 -4.8370653e-001  0.0000000e+000  0.0000000e+000  0.0000000e+000 -4.7760266e-001 -4.7760266e-001 -4.7760266e-001 
-1.4511356e-001 -4.7837821e-001  0.0000000e+000  0.0000000e+000  0.0000000e+000 -4.6303788e-001 -4.6303788e-001 -4.6303788e-001 
-1.6378260e-001 -4.7231230e-001  0.0000000e+000  0.0000000e+000  0.0000000e+000 -4.4538307e-001 -4.4538307e-001 -4.4538307e-001 
-1.8219909e-001 -4.6551815e-001  0.0000000e+000  0.0000000e+000  0.0000000e+000 -4.2463550e-001 -4.2463550e-001 -4.2463550e-001 
-2.0033480e-001 -4.5800614e-001  0.0000000e+000  0.0000000e+000  0.0000000e+000 -4.0078482e-001 -4.0078482e-001 -4.0078482e-001 
-2.1816149e-001 -4.4978797e-001  0.0000000e+000  0.0000000e+000  0.0000000e+000 -3.7381613e-001 -3.7381613e-001 -3.7381613e-001 
-2.3565179e-001 -4.4087631e-001  0.0000000e+000  0.0000000e+000  0.0000000e+000 -3.4381258e-001 -3.4381258e-001 -3.4381258e-001 
-2.5277880e-001 -4.3128473e-001  0.0000000e+000  0.0000000e+000  0.0000000e+000 -3.1098118e-001 -3.1098118e-001 -3.1098118e-001 
-2.6951596e-001 -4.2102826e-001  0.0000000e+000  0.0000000e+000  0.0000000e+000 -2.7553767e-001 -2.7553767e-001 -2.7553767e-001 
-2.8583750e-001 -4.1012260e-001  0.0000000e+000  0.0000000e+000  0.0000000e+000 -2.3751734e-001 -2.3751734e-001 -2.3751734e-001 
-3.0171841e-001 -3.9858454e-001  0.0000000e+000  0.0000000e+000  0.0000000e+000 -1.9634703e-001 -1.9634703e-001 -1.9634703e-001 
-3.1713414e-001 -3.8643187e-001  0.0000000e+000  0.0000000e+000  0.0000000e+000 -1.5452534e-001 -1.5452534e-001 -1.5452534e-001 
-3.3206081e-001 -3.7368333e-001  0.0000000e+000  0.0000000e+000  0.0000000e+000 -1.1127277e-001 -1.1127277e-001 -1.1127277e-001 
-3.4647539e-001 -3.6035874e-001  0.0000000e+000  0.0000000e+000  0.0000000e+000 -6.6253051e-002 -6.6253051e-002 -6.6253051e-002 
-3.6035585e-001 -3.4647846e-001  0.0000000e+000  0.0000000e+000  0.0000000e+000 -2.0228243e-002 -2.0228243e-002 -2.0228243e-002 
-3.7368065e-001 -3.3206391e-001  0.0000000e+000  0.0000000e+000  0.0000000e+000  2.6370931e-002  2.6370931e-002  2.6370931e-002 
-3.8642925e-001 -3.1713736e-001  0.0000000e+000  0.0000000e+000  0.0000000e+000  7.3401593e-002  7.3401593e-002  7.3401593e-002 
-3.9858201e-001 -3.0172181e-001  0.0000000e+000  0.0000000e+000  0.0000000e+000  1.2033787e-001  1.2033787e-001  1.2033787e-001 
-4.1012016e-001 -2.8584099e-001  0.0000000e+000  0.0000000e+000  0.0000000e+000  1.6677763e-001  1.6677763e-001  1.6677763e-001 
-4.2102593e-001 -2.6951951e-001  0.0000000e+000  0.0000000e+000  0.0000000e+000  2.1240139e-001  2.1240139e-001  2.1240139e-001 
-4.3128258e-001 -2.5278240e-001  0.0000000e+000  0.0000000e+000  0.0000000e+000  2.5684628e-001  2.5684628e-001  2.5684628e-001 
-4.4087425e-001 -2.3565550e-001  0.0000000e+000  0.0000000e+000  0.0000000e+000  2.9974219e-001  2.9974219e-001  2.9974219e-001 
-4.4978610e-001 -2.1816531e-001  0.0000000e+000  0.0000000e+000  0.0000000e+000  3.4073174e-001  3.4073174e-001  3.4073174e-001 
-4.5800442e-001 -2.0033869e-001  0.0000000e+000  0.0000000e+000  0.0000000e+000  3.7947500e-001  3.7947500e-001  3.7947500e-001 
-4.6551651e-001 -1.8220320e-001  0.0000000e+000  0.0000000e+000  0.0000000e+000  4.1563788e-001  4.1563788e-001  4.1563788e-001 
-4.7231084e-001 -1.6378674e-001  0.0000000e+000  0.0000000e+000  0.0000000e+000  4.4891387e-001  4.4891387e-001  4.4891387e-001 
-4.7837695e-001 -1.4511774e-001  0.0000000e+000  0.0000000e+000  0.0000000e+000  4.7902244e-001  4.7902244e-001  4.7902244e-001 
-4.8370540e-001 -1.2622495e-001  0.0000000e+000  0.0000000e+000  0.0000000e+000  5.0571090e-001  5.0571090e-001  5.0571090e-001 
-4.8828799e-001 -1.0713753e-001  0.0000000e+000  0.0000000e+000  0.0000000e+000  5.2874994e-001  5.2874994e-001  5.2874994e-001 
-4.9211776e-001 -8.7884970e-002  0.0000000e+000  0.0000000e+000  0.0000000e+000  5.4794216e-001  5.4794216e-001  5.4794216e-001 
-4.9518871e-001 -6.8496875e-002  0.0000000e+000  0.0000000e+000  0.0000000e+000  5.6311792e-001  5.6311792e-001  5.6311792e-001 
-4.9749610e-001 -4.9003161e-002  0.0000000e+000  0.0000000e+000  0.0000000e+000  5.7414234e-001  5.7414234e-001  5.7414234e-001 
-4.9903637e-001 -2.9433891e-002  0.0000000e+000  0.0000000e+000  0.0000000e+000  5.8092064e-001  5.8092064e-001  5.8092064e-001 
-4.9980718e-001 -9.8170647e-003  0.0000000e+000  0.0000000e+000  0.0000000e+000  5.8340579e-001  5.8340579e-001  5.8340579e-001 
-5.0000000e-001  0.0000000e+000  0.0000000e+000  0.0000000e+000  0.0000000e+000  5.8464849e-001  5.8464849e-001  5.8464849e-001 
-5.2504581e-001  0.0000000e+000  1.5800973e-002  1.2125481e-002  1.9917279e-002  5.6763828e-001  5.6763828e-001  5.6783664e-001 
-5.2484339e-001  1.0306715e-002  1.6044037e-002  2.5514057e-002  3.0139314e-002  5.6673878e-001  5.6673878e-001  5.6719297e-001 
-5.2403414e-001  3.0904025e-002  1.8568927e-002  5.2163370e-002  5.5369869e-002  5.6072879e-001  5.6072879e-001  5.6226170e-001 
-5.2241683e-001  5.1453456e-002  2.3114985e-002  7.8446999e-002  8.1781626e-002  5.5054212e-001  5.5054212e-001  5.5388623e-001 
-5.1999402e-001  7.1923792e-002  2.9635647e-002  1.0413341e-001  1.0826837e-001  5.3624356e-001  5.3624356e-001  5.4210460e-001 
-5.1676935e-001  9.2283443e-002  3.8064115e-002  1.2899587e-001  1.3449465e-001  5.1793122e-001  5.1793122e-001  5.2697563e-001 
-5.1274794e-001  1.1250058e-001  4.8308086e-002  1.5281443e-001  1.6026828e-001  4.9573779e-001  4.9573779e-001  5.0858074e-001 
-5.0793594e-001  1.3254401e-001  6.0245465e-002  1.7538045e-001  1.8543953e-001  4.6982715e-001  4.6982715e-001  4.8702106e-001 
-5.0234067e-001  1.5238327e-001  7.3735908e-002  1.9649807e-001  2.0987728e-001  4.4039258e-001  4.4039258e-001  4.6241683e-001 
-4.9597073e-001  1.7198785e-001  8.8620491e-002  2.1598640e-001  2.3346031e-001  4.0765655e-001  4.0765655e-001  4.3490842e-001 
-4.8883617e-001  1.9132701e-001  1.0472231e-001  2.3368002e-001  2.5607249e-001  3.7186700e-001  3.7186700e-001  4.0465355e-001 
-4.8094791e-001  2.1037090e-001  1.2184627e-001  2.4943174e-001  2.7760172e-001  3.3329776e-001  3.3329776e-001  3.7182912e-001 
-4.7231796e-001  2.2909063e-001  1.3978089e-001  2.6311830e-001  2.9794285e-001  2.9224533e-001  2.9224533e-001  3.3663028e-001 
-4.6295968e-001  2.4745733e-001  1.5830353e-001  2.7463830e-001  3.1699559e-001  2.4902067e-001  2.4902067e-001  2.9926378e-001 
-4.5288762e-001  2.6544231e-001  1.7718193e-001  2.8391010e-001  3.3466157e-001  2.0395680e-001  2.0395680e-001  2.5995597e-001 
-4.4211736e-001  2.8301775e-001  1.9617835e-001  2.9087737e-001  3.5084981e-001  1.5740499e-001  1.5740499e-001  2.1895279e-001 
-4.3066528e-001  3.0015698e-001  2.1505067e-001  2.9550946e-001  3.6547589e-001  1.0972321e-001  1.0972321e-001  1.7650953e-001 
-4.1854897e-001  3.1683356e-001  2.3356152e-001  2.9779565e-001  3.7846166e-001  6.1272655e-002  6.1272655e-002  1.3288927e-001 
-4.0578747e-001  3.3302146e-001  2.5147933e-001  2.9774025e-001  3.8973209e-001  1.2394562e-002  1.2394562e-002  8.8340119e-002 
-3.9240041e-001  3.4869573e-001  2.6853645e-001  2.9547021e-001  3.9926741e-001 -3.6512211e-002 -3.6512211e-002  4.3195024e-002 
-3.7840819e-001  3.6383247e-001  2.8450716e-001  2.9101422e-001  4.0698108e-001 -8.5044861e-002 -8.5044861e-002 -2.2280607e-003 
-3.6383229e-001  3.7840837e-001  2.9916513e-001  2.8446919e-001  4.1282260e-001 -1.3292532e-001 -1.3292532e-001 -4.7714069e-002 
-3.4869552e-001  3.9240062e-001  3.1227535e-001  2.7595395e-001  4.1673309e-001 -1.7971994e-001 -1.7971994e-001 -9.2886701e-002 
-3.3302128e-001  4.0578768e-001  3.2371259e-001  2.6573762e-001  4.1881537e-001 -2.2482431e-001 -2.2482431e-001 -1.3712114e-001 
-3.1683335e-001  4.1854918e-001  3.3350518e-001  2.5389040e-001  4.1914919e-001 -2.6839271e-001 -2.6839271e-001 -1.8054970e-001 
-3.0015671e-001  4.3066543e-001  3.4139195e-001  2.4028091e-001  4.1747260e-001 -3.1067720e-001 -3.1067720e-001 -2.2353551e-001 
-2.8301749e-001  4.4211751e-001  3.4693787e-001  2.2535214e-001  4.1370216e-001 -3.5029688e-001 -3.5029688e-001 -2.6472214e-001 
-2.6544201e-001  4.5288780e-001  3.5023114e-001  2.0937036e-001  4.0804142e-001 -3.8713840e-001 -3.8713840e-001 -3.0388948e-001 
-2.4745707e-001  4.6295986e-001  3.5120857e-001  1.9262129e-001  4.0056261e-001 -4.2125866e-001 -4.2125866e-001 -3.4103346e-001 
-2.2909039e-001  4.7231817e-001  3.4991777e-001  1.7528364e-001  3.9136529e-001 -4.5242676e-001 -4.5242676e-001 -3.7584338e-001 
-2.1037063e-001  4.8094803e-001  3.4628776e-001  1.5760471e-001  3.8046610e-001 -4.8043764e-001 -4.8043764e-001 -4.0806040e-001 
-1.9132671e-001  4.8883629e-001  3.4033024e-001  1.3986108e-001  3.6794809e-001 -5.0527126e-001 -5.0527126e-001 -4.3757835e-001 
-1.7198756e-001  4.9597090e-001  3.3213767e-001  1.2225433e-001  3.5392308e-001 -5.2681082e-001 -5.2681082e-001 -4.6418005e-001 
-1.5238300e-001  5.0234073e-001  3.2184178e-001  1.0497175e-001  3.3852798e-001 -5.4502797e-001 -5.4502797e-001 -4.8772737e-001 
-1.3254370e-001  5.0793600e-001  3.0957845e-001  8.8268332e-002  3.2191631e-001 -5.5995595e-001 -5.5995595e-001 -5.0814092e-001 
-1.1250028e-001  5.1274806e-001  2.9551774e-001  7.2357878e-002  3.0424726e-001 -5.7164860e-001 -5.7164860e-001 -5.2536541e-001 
-9.2283152e-002  5.1676941e-001  2.7986336e-001  5.7423890e-002  2.8569388e-001 -5.8020931e-001 -5.8020931e-001 -5.3939879e-001 
-7.1923614e-002  5.1999402e-001  2.6284993e-001  4.3627974e-002  2.6644602e-001 -5.8577418e-001 -5.8577418e-001 -5.5027741e-001 
-5.1453285e-002  5.2241683e-001  2.4473563e-001  3.1102546e-002  2.4670407e-001 -5.8852357e-001 -5.8852357e-001 -5.5809212e-001 
-3.0903623e-002  5.2403414e-001  2.2579329e-001  1.9953677e-002  2.2667325e-001 -5.8867013e-001 -5.8867013e-001 -5.6297976e-001 
-1.0306302e-002  5.2484339e-001  2.0629996e-001  1.0259125e-002  2.0655489e-001 -5.8646321e-001 -5.8646321e-001 -5.6513077e-001 
 1.0306913e-002  5.2484339e-001  1.8653713e-001  2.0685035e-003  1.8654861e-001 -5.8214647e-001 -5.8214647e-001 -5.6474626e-001 
 3.0904226e-002  5.2403414e-001  1.6677722e-001 -4.5982660e-003  1.6684060e-001 -5.7597083e-001 -5.7597083e-001 -5.6205297e-001 
 5.1453888e-002  5.2241683e-001  1.4728886e-001 -9.7626848e-003  1.4761205e-001 -5.6821299e-001 -5.6821299e-001 -5.5731833e-001 
 7.1924217e-002  5.1999396e-001  1.2832575e-001 -1.3487990e-002  1.2903264e-001 -5.5915576e-001 -5.5915576e-001 -5.5083108e-001 
 9.2283644e-002  5.1676929e-001  1.1011829e-001 -1.5876859e-002  1.1125696e-001 -5.4908305e-001 -5.4908305e-001 -5.4289401e-001 
 1.1250077e-001  5.1274788e-001  9.2862986e-002 -1.7061517e-002  9.4417319e-002 -5.3826523e-001 -5.3826523e-001 -5.3380793e-001 
 1.3254446e-001  5.0793576e-001  7.6719441e-002 -1.7190494e-002  7.8621790e-002 -5.2695656e-001 -5.2695656e-001 -5.2386588e-001 
 1.5238373e-001  5.0234056e-001  6.1814416e-002 -1.6404925e-002  6.3954234e-002 -5.1538301e-001 -5.1538301e-001 -5.1333791e-001 
 1.7198803e-001  4.9597070e-001  4.8240498e-002 -1.4833457e-002  5.0469566e-002 -5.0375688e-001 -5.0375688e-001 -5.0248331e-001 
 1.9132717e-001  4.8883608e-001  3.6048476e-002 -1.2646852e-002  3.8202558e-002 -4.9226204e-001 -4.9226204e-001 -4.9153233e-001 
 2.1037130e-001  4.8094773e-001  2.5260484e-002 -1.0016796e-002  2.7174037e-002 -4.8103729e-001 -4.8103729e-001 -4.8066807e-001 
 2.2909102e-001  4.7231781e-001  1.5872741e-002 -7.0924941e-003  1.7385263e-002 -4.7021770e-001 -4.7021770e-001 -4.7006658e-001 
 2.4745752e-001  4.6295959e-001  7.8479899e-003 -4.0064333e-003  8.8114953e-003 -4.5990771e-001 -4.5990771e-001 -4.5986888e-001 
 2.6544243e-001  4.5288754e-001  1.1236781e-003 -8.8044337e-004  1.4275268e-003 -4.5018500e-001 -4.5018500e-001 -4.5018399e-001 
 2.8301811e-001  4.4211715e-001 -4.3818355e-003  2.1920262e-003  4.8995367e-003 -4.4111866e-001 -4.4111866e-001 -4.4110665e-001 
 3.0015737e-001  4.3066505e-001 -8.7711355e-003  5.1394003e-003  1.0165936e-002 -4.3275648e-001 -4.3275648e-001 -4.3270481e-001 
 3.1683379e-001  4.1854888e-001 -1.2162324e-002  7.9117743e-003  1.4509249e-002 -4.2513317e-001 -4.2513317e-001 -4.2502791e-001 
 3.3302167e-001  4.0578738e-001 -1.4684711e-002  1.0495661e-002  1.8049920e-002 -4.1826984e-001 -4.1826984e-001 -4.1810694e-001 
 3.4869608e-001  3.9240015e-001 -1.6476793e-002  1.2906071e-002  2.0929677e-002 -4.1217074e-001 -4.1217074e-001 -4.1195172e-001 
 3.6383277e-001  3.7840784e-001 -1.7680744e-002  1.5183872e-002  2.3305764e-002 -4.0682283e-001 -4.0682283e-001 -4.0655124e-001 
 3.7840849e-001  3.6383209e-001 -1.8429385e-002  1.7393906e-002  2.5341472e-002 -4.0219018e-001 -4.0219018e-001 -4.0186909e-001 
 3.9240077e-001  3.4869534e-001 -1.8847901e-002  1.9612674e-002  2.7201109e-002 -3.9821157e-001 -3.9821157e-001 -3.9784163e-001 
 4.0578800e-001  3.3302093e-001 -1.9042665e-002  2.1918392e-002  2.9035134e-002 -3.9480460e-001 -3.9480460e-001 -3.9438307e-001 
 4.1854951e-001  3.1683302e-001 -1.9094285e-002  2.4380889e-002  3.0968038e-002 -3.9186841e-001 -3.9186841e-001 -3.9138889e-001 
 4.3066561e-001  3.0015659e-001 -1.9055322e-002  2.7051900e-002  3.3089433e-002 -3.8928732e-001 -3.8928732e-001 -3.8873985e-001 
 4.4211763e-001  2.8301734e-001 -1.8949496e-002  2.9957024e-002  3.5447240e-002 -3.8693699e-001 -3.8693699e-001 -3.8630873e-001 
 4.5288801e-001  2.6544169e-001 -1.8775018e-002  3.3090364e-002  3.8045678e-002 -3.8469127e-001 -3.8469127e-001 -3.8396752e-001 
 4.6296006e-001  2.4745670e-001 -1.8509265e-002  3.6412179e-002  4.0846538e-002 -3.8242856e-001 -3.8242856e-001 -3.8159433e-001 