Variables = "x","y", "Velocity_x", "Velocity_y", "Velocity_whole value", "Pressure", "Absolute pressure", "Total pressure"
Zone i=162, j=42
-5.0000000e-001  0.0000000e+000  0.0000000e+000  0.0000000e+000  0.0000000e+000  5.8464885e-001  5.8464885e-001  5.8464885e-001 
-4.9980724e-001  9.8150698e-003  0.0000000e+000  0.0000000e+000  0.0000000e+000  5.8340728e-001  5.8340728e-001  5.8340728e-001 
-4.9903661e-001  2.9429846e-002  0.0000000e+000  0.0000000e+000  0.0000000e+000  5.8092421e-001  5.8092421e-001  5.8092421e-001 
-4.9749649e-001  4.8999012e-002  0.0000000e+000  0.0000000e+000  0.0000000e+000  5.7414806e-001  5.7414806e-001  5.7414806e-001 
-4.9518925e-001  6.8492860e-002  0.0000000e+000  0.0000000e+000  0.0000000e+000  5.6312579e-001  5.6312579e-001  5.6312579e-001 
-4.9211842e-001  8.7881342e-002  0.0000000e+000  0.0000000e+000  0.0000000e+000  5.4795170e-001  5.4795170e-001  5.4795170e-001 
-4.8828882e-001  1.0713406e-001  0.0000000e+000  0.0000000e+000  0.0000000e+000  5.2876186e-001  5.2876186e-001  5.2876186e-001 
-4.8370636e-001  1.2622136e-001  0.0000000e+000  0.0000000e+000  0.0000000e+000  5.0572467e-001  5.0572467e-001  5.0572467e-001 
-4.7837794e-001  1.4511424e-001  0.0000000e+000  0.0000000e+000  0.0000000e+000  4.7903869e-001  4.7903869e-001  4.7903869e-001 
-4.7231191e-001  1.6378364e-001  0.0000000e+000  0.0000000e+000  0.0000000e+000  4.4893178e-001  4.4893178e-001  4.4893178e-001 
-4.6551770e-001  1.8220030e-001  0.0000000e+000  0.0000000e+000  0.0000000e+000  4.1565737e-001  4.1565737e-001  4.1565737e-001 
-4.5800573e-001  2.0033574e-001  0.0000000e+000  0.0000000e+000  0.0000000e+000  3.7949494e-001  3.7949494e-001  3.7949494e-001 
-4.4978741e-001  2.1816251e-001  0.0000000e+000  0.0000000e+000  0.0000000e+000  3.4075490e-001  3.4075490e-001  3.4075490e-001 
-4.4087553e-001  2.3565310e-001  0.0000000e+000  0.0000000e+000  0.0000000e+000  2.9976603e-001  2.9976603e-001  2.9976603e-001 
-4.3128395e-001  2.5278014e-001  0.0000000e+000  0.0000000e+000  0.0000000e+000  2.5687119e-001  2.5687119e-001  2.5687119e-001 
-4.2102742e-001  2.6951718e-001  0.0000000e+000  0.0000000e+000  0.0000000e+000  2.1242934e-001  2.1242934e-001  2.1242934e-001 
-4.1012165e-001  2.8583884e-001  0.0000000e+000  0.0000000e+000  0.0000000e+000  1.6680618e-001  1.6680618e-001  1.6680618e-001 
-3.9858329e-001  3.0171996e-001  0.0000000e+000  0.0000000e+000  0.0000000e+000  1.2036765e-001  1.2036765e-001  1.2036765e-001 
-3.8643056e-001  3.1713563e-001  0.0000000e+000  0.0000000e+000  0.0000000e+000  7.3434658e-002  7.3434658e-002  7.3434658e-002 
-3.7368208e-001  3.3206218e-001  0.0000000e+000  0.0000000e+000  0.0000000e+000  2.6405098e-002  2.6405098e-002  2.6405098e-002 
-3.6035728e-001  3.4647691e-001  0.0000000e+000  0.0000000e+000  0.0000000e+000 -2.0191830e-002 -2.0191830e-002 -2.0191830e-002 
-3.4647670e-001  3.6035752e-001  0.0000000e+000  0.0000000e+000  0.0000000e+000 -6.6215776e-002 -6.6215776e-002 -6.6215776e-002 
-3.3206201e-001  3.7368232e-001  0.0000000e+000  0.0000000e+000  0.0000000e+000 -1.1123524e-001 -1.1123524e-001 -1.1123524e-001 
-3.1713545e-001  3.8643074e-001  0.0000000e+000  0.0000000e+000  0.0000000e+000 -1.5448549e-001 -1.5448549e-001 -1.5448549e-001 
-3.0171975e-001  3.9858350e-001  0.0000000e+000  0.0000000e+000  0.0000000e+000 -1.9630428e-001 -1.9630428e-001 -1.9630428e-001 
-2.8583866e-001  4.1012180e-001  0.0000000e+000  0.0000000e+000  0.0000000e+000 -2.3747399e-001 -2.3747399e-001 -2.3747399e-001 
-2.6951694e-001  4.2102760e-001  0.0000000e+000  0.0000000e+000  0.0000000e+000 -2.7549079e-001 -2.7549079e-001 -2.7549079e-001 
-2.5277984e-001  4.3128410e-001  0.0000000e+000  0.0000000e+000  0.0000000e+000 -3.1093287e-001 -3.1093287e-001 -3.1093287e-001 
-2.3565285e-001  4.4087571e-001  0.0000000e+000  0.0000000e+000  0.0000000e+000 -3.4375980e-001 -3.4375980e-001 -3.4375980e-001 
-2.1816230e-001  4.4978762e-001  0.0000000e+000  0.0000000e+000  0.0000000e+000 -3.7376294e-001 -3.7376294e-001 -3.7376294e-001 
-2.0033550e-001  4.5800579e-001  0.0000000e+000  0.0000000e+000  0.0000000e+000 -4.0072939e-001 -4.0072939e-001 -4.0072939e-001 
-1.8220000e-001  4.6551776e-001  0.0000000e+000  0.0000000e+000  0.0000000e+000 -4.2457569e-001 -4.2457569e-001 -4.2457569e-001 
-1.6378340e-001  4.7231200e-001  0.0000000e+000  0.0000000e+000  0.0000000e+000 -4.4532147e-001 -4.4532147e-001 -4.4532147e-001 
-1.4511400e-001  4.7837806e-001  0.0000000e+000  0.0000000e+000  0.0000000e+000 -4.6297485e-001 -4.6297485e-001 -4.6297485e-001 
-1.2622105e-001  4.8370641e-001  0.0000000e+000  0.0000000e+000  0.0000000e+000 -4.7753596e-001 -4.7753596e-001 -4.7753596e-001 
-1.0713376e-001  4.8828888e-001  0.0000000e+000  0.0000000e+000  0.0000000e+000 -4.8903328e-001 -4.8903328e-001 -4.8903328e-001 
-8.7881044e-002  4.9211848e-001  0.0000000e+000  0.0000000e+000  0.0000000e+000 -4.9756962e-001 -4.9756962e-001 -4.9756962e-001 
-6.8492696e-002  4.9518925e-001  0.0000000e+000  0.0000000e+000  0.0000000e+000 -5.0328392e-001 -5.0328392e-001 -5.0328392e-001 
-4.8998840e-002  4.9749649e-001  0.0000000e+000  0.0000000e+000  0.0000000e+000 -5.0635880e-001 -5.0635880e-001 -5.0635880e-001 
-2.9429436e-002  4.9903661e-001  0.0000000e+000  0.0000000e+000  0.0000000e+000 -5.0700140e-001 -5.0700140e-001 -5.0700140e-001 
-9.8146517e-003  4.9980724e-001  0.0000000e+000  0.0000000e+000  0.0000000e+000 -5.0545257e-001 -5.0545257e-001 -5.0545257e-001 
 9.8152636e-003  4.9980724e-001  0.0000000e+000  0.0000000e+000  0.0000000e+000 -5.0193036e-001 -5.0193036e-001 -5.0193036e-001 
 2.9430045e-002  4.9903661e-001  0.0000000e+000  0.0000000e+000  0.0000000e+000 -4.9665365e-001 -4.9665365e-001 -4.9665365e-001 
 4.8999451e-002  4.9749646e-001  0.0000000e+000  0.0000000e+000  0.0000000e+000 -4.8987538e-001 -4.8987538e-001 -4.8987538e-001 
 6.8493299e-002  4.9518913e-001  0.0000000e+000  0.0000000e+000  0.0000000e+000 -4.8186859e-001 -4.8186859e-001 -4.8186859e-001 
 8.7881535e-002  4.9211836e-001  0.0000000e+000  0.0000000e+000  0.0000000e+000 -4.7292274e-001 -4.7292274e-001 -4.7292274e-001 
 1.0713425e-001  4.8828876e-001  0.0000000e+000  0.0000000e+000  0.0000000e+000 -4.6331832e-001 -4.6331832e-001 -4.6331832e-001 
 1.2622181e-001  4.8370618e-001  0.0000000e+000  0.0000000e+000  0.0000000e+000 -4.5330280e-001 -4.5330280e-001 -4.5330280e-001 
 1.4511469e-001  4.7837785e-001  0.0000000e+000  0.0000000e+000  0.0000000e+000 -4.4307902e-001 -4.4307902e-001 -4.4307902e-001 
 1.6378385e-001  4.7231185e-001  0.0000000e+000  0.0000000e+000  0.0000000e+000 -4.3283641e-001 -4.3283641e-001 -4.3283641e-001 
 1.8220049e-001  4.6551755e-001  0.0000000e+000  0.0000000e+000  0.0000000e+000 -4.2273176e-001 -4.2273176e-001 -4.2273176e-001 
 2.0033616e-001  4.5800549e-001  0.0000000e+000  0.0000000e+000  0.0000000e+000 -4.1287971e-001 -4.1287971e-001 -4.1287971e-001 
 2.1816289e-001  4.4978726e-001  0.0000000e+000  0.0000000e+000  0.0000000e+000 -4.0338853e-001 -4.0338853e-001 -4.0338853e-001 
 2.3565331e-001  4.4087544e-001  0.0000000e+000  0.0000000e+000  0.0000000e+000 -3.9432183e-001 -3.9432183e-001 -3.9432183e-001 
 2.5278032e-001  4.3128383e-001  0.0000000e+000  0.0000000e+000  0.0000000e+000 -3.8572276e-001 -3.8572276e-001 -3.8572276e-001 
 2.6951754e-001  4.2102724e-001  0.0000000e+000  0.0000000e+000  0.0000000e+000 -3.7760583e-001 -3.7760583e-001 -3.7760583e-001 
 2.8583926e-001  4.1012138e-001  0.0000000e+000  0.0000000e+000  0.0000000e+000 -3.6996219e-001 -3.6996219e-001 -3.6996219e-001 
 3.0172014e-001  3.9858320e-001  0.0000000e+000  0.0000000e+000  0.0000000e+000 -3.6277479e-001 -3.6277479e-001 -3.6277479e-001 
 3.1713587e-001  3.8643044e-001  0.0000000e+000  0.0000000e+000  0.0000000e+000 -3.5602048e-001 -3.5602048e-001 -3.5602048e-001 
 3.3206254e-001  3.7368178e-001  0.0000000e+000  0.0000000e+000  0.0000000e+000 -3.4966883e-001 -3.4966883e-001 -3.4966883e-001 
 3.4647721e-001  3.6035699e-001  0.0000000e+000  0.0000000e+000  0.0000000e+000 -3.4369224e-001 -3.4369224e-001 -3.4369224e-001 
 3.6035764e-001  3.4647655e-001  0.0000000e+000  0.0000000e+000  0.0000000e+000 -3.3806780e-001 -3.3806780e-001 -3.3806780e-001 
 3.7368244e-001  3.3206183e-001  0.0000000e+000  0.0000000e+000  0.0000000e+000 -3.3278224e-001 -3.3278224e-001 -3.3278224e-001 
 3.8643104e-001  3.1713516e-001  0.0000000e+000  0.0000000e+000  0.0000000e+000 -3.2786903e-001 -3.2786903e-001 -3.2786903e-001 
 3.9858380e-001  3.0171940e-001  0.0000000e+000  0.0000000e+000  0.0000000e+000 -3.2331944e-001 -3.2331944e-001 -3.2331944e-001 
 4.1012195e-001  2.8583845e-001  0.0000000e+000  0.0000000e+000  0.0000000e+000 -3.1916478e-001 -3.1916478e-001 -3.1916478e-001 
 4.2102772e-001  2.6951680e-001  0.0000000e+000  0.0000000e+000  0.0000000e+000 -3.1544337e-001 -3.1544337e-001 -3.1544337e-001 
 4.3128431e-001  2.5277954e-001  0.0000000e+000  0.0000000e+000  0.0000000e+000 -3.1220698e-001 -3.1220698e-001 -3.1220698e-001 
 4.4087589e-001  2.3565251e-001  0.0000000e+000  0.0000000e+000  0.0000000e+000 -3.0950829e-001 -3.0950829e-001 -3.0950829e-001 
 4.4978765e-001  2.1816209e-001  0.0000000e+000  0.0000000e+000  0.0000000e+000 -3.0739799e-001 -3.0739799e-001 -3.0739799e-001 
 4.5800591e-001  2.0033529e-001  0.0000000e+000  0.0000000e+000  0.0000000e+000 -3.0592322e-001 -3.0592322e-001 -3.0592322e-001 
 4.6551794e-001  1.8219960e-001  0.0000000e+000  0.0000000e+000  0.0000000e+000 -3.0512375e-001 -3.0512375e-001 -3.0512375e-001 
 4.7231215e-001  1.6378300e-001  0.0000000e+000  0.0000000e+000  0.0000000e+000 -3.0502880e-001 -3.0502880e-001 -3.0502880e-001 
 4.7837809e-001  1.4511386e-001  0.0000000e+000  0.0000000e+000  0.0000000e+000 -3.0565575e-001 -3.0565575e-001 -3.0565575e-001 
 4.8370644e-001  1.2622090e-001  0.0000000e+000  0.0000000e+000  0.0000000e+000 -3.0700761e-001 -3.0700761e-001 -3.0700761e-001 
 4.8828891e-001  1.0713334e-001  0.0000000e+000  0.0000000e+000  0.0000000e+000 -3.0907124e-001 -3.0907124e-001 -3.0907124e-001 
 4.9211851e-001  8.7880611e-002  0.0000000e+000  0.0000000e+000  0.0000000e+000 -3.1181747e-001 -3.1181747e-001 -3.1181747e-001 
 4.9518931e-001  6.8492368e-002  0.0000000e+000  0.0000000e+000  0.0000000e+000 -3.1520158e-001 -3.1520158e-001 -3.1520158e-001 
 4.9749649e-001  4.8998520e-002  0.0000000e+000  0.0000000e+000  0.0000000e+000 -3.1915769e-001 -3.1915769e-001 -3.1915769e-001 
 4.9903661e-001  2.9429115e-002  0.0000000e+000  0.0000000e+000  0.0000000e+000 -3.2360619e-001 -3.2360619e-001 -3.2360619e-001 
 4.9980724e-001  9.8146452e-003  0.0000000e+000  0.0000000e+000  0.0000000e+000 -3.2845345e-001 -3.2845345e-001 -3.2845345e-001 
 4.9980724e-001 -9.8149152e-003  0.0000000e+000  0.0000000e+000  0.0000000e+000 -3.3359545e-001 -3.3359545e-001 -3.3359545e-001 
 4.9903661e-001 -2.9429652e-002  0.0000000e+000  0.0000000e+000  0.0000000e+000 -3.3892074e-001 -3.3892074e-001 -3.3892074e-001 
 4.9749646e-001 -4.8999056e-002  0.0000000e+000  0.0000000e+000  0.0000000e+000 -3.4431678e-001 -3.4431678e-001 -3.4431678e-001 
 4.9518919e-001 -6.8492912e-002  0.0000000e+000  0.0000000e+000  0.0000000e+000 -3.4967315e-001 -3.4967315e-001 -3.4967315e-001 
 4.9211848e-001 -8.7881148e-002  0.0000000e+000  0.0000000e+000  0.0000000e+000 -3.5487503e-001 -3.5487503e-001 -3.5487503e-001 
 4.8828888e-001 -1.0713386e-001  0.0000000e+000  0.0000000e+000  0.0000000e+000 -3.5985312e-001 -3.5985312e-001 -3.5985312e-001 
 4.8370630e-001 -1.2622139e-001  0.0000000e+000  0.0000000e+000  0.0000000e+000 -3.6451510e-001 -3.6451510e-001 -3.6451510e-001 
 4.7837794e-001 -1.4511435e-001  0.0000000e+000  0.0000000e+000  0.0000000e+000 -3.6880833e-001 -3.6880833e-001 -3.6880833e-001 
 4.7231200e-001 -1.6378349e-001  0.0000000e+000  0.0000000e+000  0.0000000e+000 -3.7270457e-001 -3.7270457e-001 -3.7270457e-001 
 4.6551776e-001 -1.8220010e-001  0.0000000e+000  0.0000000e+000  0.0000000e+000 -3.7620145e-001 -3.7620145e-001 -3.7620145e-001 
 4.5800573e-001 -2.0033580e-001  0.0000000e+000  0.0000000e+000  0.0000000e+000 -3.7932369e-001 -3.7932369e-001 -3.7932369e-001 
 4.4978744e-001 -2.1816260e-001  0.0000000e+000  0.0000000e+000  0.0000000e+000 -3.8212118e-001 -3.8212118e-001 -3.8212118e-001 
 4.4087565e-001 -2.3565295e-001  0.0000000e+000  0.0000000e+000  0.0000000e+000 -3.8466907e-001 -3.8466907e-001 -3.8466907e-001 
 4.3128407e-001 -2.5277996e-001  0.0000000e+000  0.0000000e+000  0.0000000e+000 -3.8706502e-001 -3.8706502e-001 -3.8706502e-001 
 4.2102745e-001 -2.6951724e-001  0.0000000e+000  0.0000000e+000  0.0000000e+000 -3.8942564e-001 -3.8942564e-001 -3.8942564e-001 
 4.1012165e-001 -2.8583896e-001  0.0000000e+000  0.0000000e+000  0.0000000e+000 -3.9188707e-001 -3.9188707e-001 -3.9188707e-001 
 3.9858347e-001 -3.0171984e-001  0.0000000e+000  0.0000000e+000  0.0000000e+000 -3.9459023e-001 -3.9459023e-001 -3.9459023e-001 
 3.8643065e-001 -3.1713557e-001  0.0000000e+000  0.0000000e+000  0.0000000e+000 -3.9767361e-001 -3.9767361e-001 -3.9767361e-001 
 3.7368205e-001 -3.3206224e-001  0.0000000e+000  0.0000000e+000  0.0000000e+000 -4.0126708e-001 -4.0126708e-001 -4.0126708e-001 
 3.6035725e-001 -3.4647691e-001  0.0000000e+000  0.0000000e+000  0.0000000e+000 -4.0548411e-001 -4.0548411e-001 -4.0548411e-001 
 3.4647679e-001 -3.6035734e-001  0.0000000e+000  0.0000000e+000  0.0000000e+000 -4.1041738e-001 -4.1041738e-001 -4.1041738e-001 
 3.3206213e-001 -3.7368214e-001  0.0000000e+000  0.0000000e+000  0.0000000e+000 -4.1613695e-001 -4.1613695e-001 -4.1613695e-001 
 3.1713545e-001 -3.8643074e-001  0.0000000e+000  0.0000000e+000  0.0000000e+000 -4.2268291e-001 -4.2268291e-001 -4.2268291e-001 
 3.0171970e-001 -3.9858353e-001  0.0000000e+000  0.0000000e+000  0.0000000e+000 -4.3006730e-001 -4.3006730e-001 -4.3006730e-001 
 2.8583875e-001 -4.1012174e-001  0.0000000e+000  0.0000000e+000  0.0000000e+000 -4.3828517e-001 -4.3828517e-001 -4.3828517e-001 
 2.6951712e-001 -4.2102748e-001  0.0000000e+000  0.0000000e+000  0.0000000e+000 -4.4731158e-001 -4.4731158e-001 -4.4731158e-001 
 2.5277984e-001 -4.3128410e-001  0.0000000e+000  0.0000000e+000  0.0000000e+000 -4.5710409e-001 -4.5710409e-001 -4.5710409e-001 
 2.3565289e-001 -4.4087565e-001  0.0000000e+000  0.0000000e+000  0.0000000e+000 -4.6760824e-001 -4.6760824e-001 -4.6760824e-001 
 2.1816251e-001 -4.4978741e-001  0.0000000e+000  0.0000000e+000  0.0000000e+000 -4.7874749e-001 -4.7874749e-001 -4.7874749e-001 
 2.0033574e-001 -4.5800567e-001  0.0000000e+000  0.0000000e+000  0.0000000e+000 -4.9042803e-001 -4.9042803e-001 -4.9042803e-001 
 1.8220019e-001 -4.6551764e-001  0.0000000e+000  0.0000000e+000  0.0000000e+000 -5.0254101e-001 -5.0254101e-001 -5.0254101e-001 
 1.6378361e-001 -4.7231191e-001  0.0000000e+000  0.0000000e+000  0.0000000e+000 -5.1493257e-001 -5.1493257e-001 -5.1493257e-001 
 1.4511456e-001 -4.7837785e-001  0.0000000e+000  0.0000000e+000  0.0000000e+000 -5.2745229e-001 -5.2745229e-001 -5.2745229e-001 
 1.2622175e-001 -4.8370618e-001  0.0000000e+000  0.0000000e+000  0.0000000e+000 -5.3990716e-001 -5.3990716e-001 -5.3990716e-001 
 1.0713422e-001 -4.8828876e-001  0.0000000e+000  0.0000000e+000  0.0000000e+000 -5.5206925e-001 -5.5206925e-001 -5.5206925e-001 
 8.7881476e-002 -4.9211836e-001  0.0000000e+000  0.0000000e+000  0.0000000e+000 -5.6370050e-001 -5.6370050e-001 -5.6370050e-001 
 6.8493240e-002 -4.9518913e-001  0.0000000e+000  0.0000000e+000  0.0000000e+000 -5.7451952e-001 -5.7451952e-001 -5.7451952e-001 
 4.8999503e-002 -4.9749640e-001  0.0000000e+000  0.0000000e+000  0.0000000e+000 -5.8421302e-001 -5.8421302e-001 -5.8421302e-001 
 2.9430222e-002 -4.9903655e-001  0.0000000e+000  0.0000000e+000  0.0000000e+000 -5.9246892e-001 -5.9246892e-001 -5.9246892e-001 
 9.8154414e-003 -4.9980724e-001  0.0000000e+000  0.0000000e+000  0.0000000e+000 -5.9899443e-001 -5.9899443e-001 -5.9899443e-001 
-9.8143592e-003 -4.9980724e-001  0.0000000e+000  0.0000000e+000  0.0000000e+000 -6.0351986e-001 -6.0351986e-001 -6.0351986e-001 
-2.9429026e-002 -4.9903661e-001  0.0000000e+000  0.0000000e+000  0.0000000e+000 -6.0582191e-001 -6.0582191e-001 -6.0582191e-001 
-4.8998430e-002 -4.9749649e-001  0.0000000e+000  0.0000000e+000  0.0000000e+000 -6.0567588e-001 -6.0567588e-001 -6.0567588e-001 
-6.8492278e-002 -4.9518931e-001  0.0000000e+000  0.0000000e+000  0.0000000e+000 -6.0282958e-001 -6.0282958e-001 -6.0282958e-001 
-8.7880522e-002 -4.9211854e-001  0.0000000e+000  0.0000000e+000  0.0000000e+000 -5.9707361e-001 -5.9707361e-001 -5.9707361e-001 
-1.0713315e-001 -4.8828900e-001  0.0000000e+000  0.0000000e+000  0.0000000e+000 -5.8823341e-001 -5.8823341e-001 -5.8823341e-001 
-1.2622060e-001 -4.8370653e-001  0.0000000e+000  0.0000000e+000  0.0000000e+000 -5.7617253e-001 -5.7617253e-001 -5.7617253e-001 
-1.4511356e-001 -4.7837821e-001  0.0000000e+000  0.0000000e+000  0.0000000e+000 -5.6079888e-001 -5.6079888e-001 -5.6079888e-001 
-1.6378260e-001 -4.7231230e-001  0.0000000e+000  0.0000000e+000  0.0000000e+000 -5.4208910e-001 -5.4208910e-001 -5.4208910e-001 
-1.8219909e-001 -4.6551815e-001  0.0000000e+000  0.0000000e+000  0.0000000e+000 -5.2008772e-001 -5.2008772e-001 -5.2008772e-001 
-2.0033480e-001 -4.5800614e-001  0.0000000e+000  0.0000000e+000  0.0000000e+000 -4.9469307e-001 -4.9469307e-001 -4.9469307e-001 
-2.1816149e-001 -4.4978797e-001  0.0000000e+000  0.0000000e+000  0.0000000e+000 -4.6597466e-001 -4.6597466e-001 -4.6597466e-001 
-2.3565179e-001 -4.4087631e-001  0.0000000e+000  0.0000000e+000  0.0000000e+000 -4.3404749e-001 -4.3404749e-001 -4.3404749e-001 
-2.5277880e-001 -4.3128473e-001  0.0000000e+000  0.0000000e+000  0.0000000e+000 -3.9909416e-001 -3.9909416e-001 -3.9909416e-001 
-2.6951596e-001 -4.2102826e-001  0.0000000e+000  0.0000000e+000  0.0000000e+000 -3.6126614e-001 -3.6126614e-001 -3.6126614e-001 
-2.8583750e-001 -4.1012260e-001  0.0000000e+000  0.0000000e+000  0.0000000e+000 -3.2070103e-001 -3.2070103e-001 -3.2070103e-001 
-3.0171841e-001 -3.9858454e-001  0.0000000e+000  0.0000000e+000  0.0000000e+000 -2.7685374e-001 -2.7685374e-001 -2.7685374e-001 
-3.1713414e-001 -3.8643187e-001  0.0000000e+000  0.0000000e+000  0.0000000e+000 -2.3228721e-001 -2.3228721e-001 -2.3228721e-001 
-3.3206081e-001 -3.7368333e-001  0.0000000e+000  0.0000000e+000  0.0000000e+000 -1.8632685e-001 -1.8632685e-001 -1.8632685e-001 
-3.4647539e-001 -3.6035874e-001  0.0000000e+000  0.0000000e+000  0.0000000e+000 -1.3838145e-001 -1.3838145e-001 -1.3838145e-001 
-3.6035585e-001 -3.4647846e-001  0.0000000e+000  0.0000000e+000  0.0000000e+000 -8.9284100e-002 -8.9284100e-002 -8.9284100e-002 
-3.7368065e-001 -3.3206391e-001  0.0000000e+000  0.0000000e+000  0.0000000e+000 -3.9527554e-002 -3.9527554e-002 -3.9527554e-002 
-3.8642925e-001 -3.1713736e-001  0.0000000e+000  0.0000000e+000  0.0000000e+000  1.0708199e-002  1.0708199e-002  1.0708199e-002 
-3.9858201e-001 -3.0172181e-001  0.0000000e+000  0.0000000e+000  0.0000000e+000  6.0947843e-002  6.0947843e-002  6.0947843e-002 
-4.1012016e-001 -2.8584099e-001  0.0000000e+000  0.0000000e+000  0.0000000e+000  1.1075269e-001  1.1075269e-001  1.1075269e-001 
-4.2102593e-001 -2.6951951e-001  0.0000000e+000  0.0000000e+000  0.0000000e+000  1.5979022e-001  1.5979022e-001  1.5979022e-001 
-4.3128258e-001 -2.5278240e-001  0.0000000e+000  0.0000000e+000  0.0000000e+000  2.0769601e-001  2.0769601e-001  2.0769601e-001 
-4.4087425e-001 -2.3565550e-001  0.0000000e+000  0.0000000e+000  0.0000000e+000  2.5409430e-001  2.5409430e-001  2.5409430e-001 
-4.4978610e-001 -2.1816531e-001  0.0000000e+000  0.0000000e+000  0.0000000e+000  2.9862016e-001  2.9862016e-001  2.9862016e-001 
-4.5800442e-001 -2.0033869e-001  0.0000000e+000  0.0000000e+000  0.0000000e+000  3.4093124e-001  3.4093124e-001  3.4093124e-001 
-4.6551651e-001 -1.8220320e-001  0.0000000e+000  0.0000000e+000  0.0000000e+000  3.8069451e-001  3.8069451e-001  3.8069451e-001 
-4.7231084e-001 -1.6378674e-001  0.0000000e+000  0.0000000e+000  0.0000000e+000  4.1759777e-001  4.1759777e-001  4.1759777e-001 
-4.7837695e-001 -1.4511774e-001  0.0000000e+000  0.0000000e+000  0.0000000e+000  4.5135337e-001  4.5135337e-001  4.5135337e-001 
-4.8370540e-001 -1.2622495e-001  0.0000000e+000  0.0000000e+000  0.0000000e+000  4.8170587e-001  4.8170587e-001  4.8170587e-001 
-4.8828799e-001 -1.0713753e-001  0.0000000e+000  0.0000000e+000  0.0000000e+000  5.0842297e-001  5.0842297e-001  5.0842297e-001 
-4.9211776e-001 -8.7884970e-002  0.0000000e+000  0.0000000e+000  0.0000000e+000  5.3130543e-001  5.3130543e-001  5.3130543e-001 
-4.9518871e-001 -6.8496875e-002  0.0000000e+000  0.0000000e+000  0.0000000e+000  5.5018198e-001  5.5018198e-001  5.5018198e-001 
-4.9749610e-001 -4.9003161e-002  0.0000000e+000  0.0000000e+000  0.0000000e+000  5.6491560e-001  5.6491560e-001  5.6491560e-001 
-4.9903637e-001 -2.9433891e-002  0.0000000e+000  0.0000000e+000  0.0000000e+000  5.7540464e-001  5.7540464e-001  5.7540464e-001 
-4.9980718e-001 -9.8170647e-003  0.0000000e+000  0.0000000e+000  0.0000000e+000  5.8158147e-001  5.8158147e-001  5.8158147e-001 
-5.0000000e-001  0.0000000e+000  0.0000000e+000  0.0000000e+000  0.0000000e+000  5.8467019e-001  5.8467019e-001  5.8467019e-001 
-5.2504581e-001  0.0000000e+000  1.5801085e-002 -1.2131245e-002  1.9920878e-002  5.6763858e-001  5.6763858e-001  5.6783700e-001 
-5.2484339e-001  1.0306715e-002  1.5557384e-002  1.2574092e-003  1.5608116e-002  5.6853938e-001  5.6853938e-001  5.6866121e-001 
-5.2403414e-001  3.0904025e-002  1.7108921e-002  2.7930181e-002  3.2753780e-002  5.6614441e-001  5.6614441e-001  5.6668079e-001 
-5.2241683e-001  5.1453456e-002  2.0671487e-002  5.4267991e-002  5.8071725e-002  5.5957466e-001  5.5957466e-001  5.6126082e-001 
-5.1999402e-001  7.1923792e-002  2.6205463e-002  8.0040120e-002  8.4220827e-002  5.4888928e-001  5.4888928e-001  5.5243587e-001 
-5.1676935e-001  9.2283443e-002  3.3646282e-002  1.0501944e-001  1.1027763e-001  5.3418535e-001  5.3418535e-001  5.4026592e-001 
-5.1274794e-001  1.1250058e-001  4.2907827e-002  1.2898618e-001  1.3593571e-001  5.1559323e-001  5.1559323e-001  5.2483249e-001 
-5.0793594e-001  1.3254401e-001  5.3868528e-002  1.5173207e-001  1.6101068e-001  4.9327454e-001  4.9327454e-001  5.0623673e-001 
-5.0234067e-001  1.5238327e-001  6.6388056e-002  1.7306159e-001  1.8535827e-001  4.6742055e-001  4.6742055e-001  4.8459938e-001 
-4.9597073e-001  1.7198785e-001  8.0308042e-002  1.9279431e-001  2.0885168e-001  4.3825096e-001  4.3825096e-001  4.6006048e-001 
-4.8883617e-001  1.9132701e-001  9.5452584e-002  2.1076514e-001  2.3137230e-001  4.0601087e-001  4.0601087e-001  4.3277743e-001 
-4.8094791e-001  2.1037090e-001  1.1162888e-001  2.2682682e-001  2.5280705e-001  3.7097085e-001  3.7097085e-001  4.0292656e-001 
-4.7231796e-001  2.2909063e-001  1.2862822e-001  2.4085543e-001  2.7305046e-001  3.3342481e-001  3.3342481e-001  3.7070307e-001 
-4.6295968e-001  2.4745733e-001  1.4622897e-001  2.5275058e-001  2.9200304e-001  2.9368097e-001  2.9368097e-001  3.3631384e-001 
-4.5288762e-001  2.6544231e-001  1.6419931e-001  2.6243302e-001  3.0956826e-001  2.5206625e-001  2.5206625e-001  2.9998252e-001 
-4.4211736e-001  2.8301775e-001  1.8230326e-001  2.6984721e-001  3.2565627e-001  2.0892566e-001  2.0892566e-001  2.6195166e-001 
-4.3066528e-001  3.0015698e-001  2.0030195e-001  2.7496341e-001  3.4018487e-001  1.6461240e-001  1.6461240e-001  2.2247528e-001 
-4.1854897e-001  3.1683356e-001  2.1795969e-001  2.7777421e-001  3.5307923e-001  1.1948420e-001  1.1948420e-001  1.8181667e-001 
-4.0578747e-001  3.3302146e-001  2.3505166e-001  2.7827546e-001  3.6426160e-001  7.3871270e-002  7.3871270e-002  1.4021453e-001 
-3.9240041e-001  3.4869573e-001  2.5131437e-001  2.7659720e-001  3.7371770e-001  2.8158421e-002  2.8158421e-002  9.7990885e-002 
-3.7840819e-001  3.6383247e-001  2.6653025e-001  2.7276954e-001  3.8136804e-001 -1.7236348e-002 -1.7236348e-002  5.5484448e-002 
-3.6383229e-001  3.7840837e-001  2.8047225e-001  2.6690122e-001  3.8717043e-001 -6.2074665e-002 -6.2074665e-002  1.2875808e-002 
-3.4869552e-001  3.9240062e-001  2.9292923e-001  2.5908908e-001  3.9106864e-001 -1.0592514e-001 -1.0592514e-001 -2.9457798e-002 
-3.3302128e-001  4.0578768e-001  3.0376020e-001  2.4958563e-001  3.9314532e-001 -1.4825554e-001 -1.4825554e-001 -7.0973918e-002 
-3.1683335e-001  4.1854918e-001  3.1296667e-001  2.3849554e-001  3.9348224e-001 -1.8909335e-001 -1.8909335e-001 -1.1167922e-001 
-3.0015671e-001  4.3066543e-001  3.2031670e-001  2.2570559e-001  3.9184922e-001 -2.2873452e-001 -2.2873452e-001 -1.5196162e-001 
-2.8301749e-001  4.4211751e-001  3.2542357e-001  2.1166022e-001  3.8820168e-001 -2.6580483e-001 -2.6580483e-001 -1.9045456e-001 
-2.6544201e-001  4.5288780e-001  3.2836089e-001  1.9662629e-001  3.8273066e-001 -3.0033660e-001 -3.0033660e-001 -2.2709522e-001 
-2.4745707e-001  4.6295986e-001  3.2908162e-001  1.8082701e-001  3.7549052e-001 -3.3231807e-001 -3.3231807e-001 -2.6182151e-001 
-2.2909039e-001  4.7231817e-001  3.2762882e-001  1.6445285e-001  3.6658612e-001 -3.6153114e-001 -3.6153114e-001 -2.9433843e-001 
-2.1037063e-001  4.8094803e-001  3.2392254e-001  1.4777015e-001  3.5603628e-001 -3.8781327e-001 -3.8781327e-001 -3.2443234e-001 
-1.9132671e-001  4.8883629e-001  3.1801456e-001  1.3101488e-001  3.4394500e-001 -4.1109622e-001 -4.1109622e-001 -3.5194713e-001 
-1.7198756e-001  4.9597090e-001  3.1001234e-001  1.1437998e-001  3.3043975e-001 -4.3131244e-001 -4.3131244e-001 -3.7671724e-001 
-1.5238300e-001  5.0234073e-001  3.0003169e-001  9.8087929e-002  3.1565845e-001 -4.4846255e-001 -4.4846255e-001 -3.9864242e-001 
-1.3254370e-001  5.0793600e-001  2.8821126e-001  8.2370296e-002  2.9975089e-001 -4.6257570e-001 -4.6257570e-001 -4.1765040e-001 
-1.1250028e-001  5.1274806e-001  2.7473018e-001  6.7422897e-002  2.8288251e-001 -4.7370899e-001 -4.7370899e-001 -4.3369773e-001 
-9.2283152e-002  5.1676941e-001  2.5979698e-001  5.3422809e-002  2.6523286e-001 -4.8197693e-001 -4.8197693e-001 -4.4680271e-001 
-7.1923614e-002  5.1999402e-001  2.4364510e-001  4.0520590e-002  2.4699160e-001 -4.8752189e-001 -4.8752189e-001 -4.5701945e-001 
-5.1453285e-002  5.2241683e-001  2.2652812e-001  2.8836239e-002  2.2835612e-001 -4.9052489e-001 -4.9052489e-001 -4.6445164e-001 
-3.0903623e-002  5.2403414e-001  2.0870976e-001  1.8464088e-002  2.0952491e-001 -4.9119720e-001 -4.9119720e-001 -4.6924686e-001 
-1.0306302e-002  5.2484339e-001  1.9045526e-001  9.4689094e-003  1.9069050e-001 -4.8977745e-001 -4.8977745e-001 -4.7159600e-001 
 1.0306913e-002  5.2484339e-001  1.7203224e-001  1.8854893e-003  1.7204256e-001 -4.8649931e-001 -4.8649931e-001 -4.7169998e-001 
 3.0904226e-002  5.2403414e-001  1.5370291e-001 -4.2796116e-003  1.5376249e-001 -4.8160052e-001 -4.8160052e-001 -4.6977907e-001 
 5.1453888e-002  5.2241683e-001  1.3571669e-001 -9.0575637e-003  1.3601860e-001 -4.7533727e-001 -4.7533727e-001 -4.6608675e-001 
 7.1924217e-002  5.1999396e-001  1.1830659e-001 -1.2517493e-002  1.1896696e-001 -4.6797055e-001 -4.6797055e-001 -4.6089399e-001 
 9.2283644e-002  5.1676929e-001  1.0167862e-001 -1.4762695e-002  1.0274473e-001 -4.5975947e-001 -4.5975947e-001 -4.5448124e-001 
 1.1250077e-001  5.1274788e-001  8.6002648e-002 -1.5920481e-002  8.7463804e-002 -4.5094630e-001 -4.5094630e-001 -4.4712135e-001 
 1.3254446e-001  5.0793576e-001  7.1411759e-002 -1.6130662e-002  7.3210910e-002 -4.4175318e-001 -4.4175318e-001 -4.3907326e-001 
 1.5238373e-001  5.0234056e-001  5.8007009e-002 -1.5523209e-002  6.0048174e-002 -4.3237492e-001 -4.3237492e-001 -4.3057203e-001 
 1.7198803e-001  4.9597070e-001  4.5855202e-002 -1.4215952e-002  4.8008259e-002 -4.2298895e-001 -4.2298895e-001 -4.2183656e-001 
 1.9132717e-001  4.8883608e-001  3.4984037e-002 -1.2359198e-002  3.7103001e-002 -4.1374293e-001 -4.1374293e-001 -4.1305462e-001 
 2.1037130e-001  4.8094773e-001  2.5394348e-002 -1.0098679e-002  2.7328670e-002 -4.0474316e-001 -4.0474316e-001 -4.0436974e-001 
 2.2909102e-001  4.7231781e-001  1.7062631e-002 -7.5583518e-003  1.8661780e-002 -3.9608562e-001 -3.9608562e-001 -3.9591148e-001 
 2.4745752e-001  4.6295959e-001  9.9377176e-003 -4.8485268e-003  1.1057416e-002 -3.8783234e-001 -3.8783234e-001 -3.8777122e-001 
 2.6544243e-001  4.5288754e-001  3.9505186e-003 -2.0720991e-003  4.4609630e-003 -3.8001695e-001 -3.8001695e-001 -3.8000700e-001 
 2.8301811e-001  4.4211715e-001 -9.7741373e-004  6.8359857e-004  1.1927467e-003 -3.7265509e-001 -3.7265509e-001 -3.7265438e-001 
 3.0015737e-001  4.3066505e-001 -4.9313661e-003  3.3386995e-003  5.9552738e-003 -3.6573979e-001 -3.6573979e-001 -3.6572206e-001 
 3.1683379e-001  4.1854888e-001 -7.9976460e-003  5.8183535e-003  9.8901754e-003 -3.5925236e-001 -3.5925236e-001 -3.5920346e-001 
 3.3302167e-001  4.0578738e-001 -1.0261174e-002  8.0487290e-003  1.3041232e-002 -3.5316610e-001 -3.5316610e-001 -3.5308108e-001 
 3.4869608e-001  3.9240015e-001 -1.1801220e-002  9.9615669e-003  1.5443497e-002 -3.4745064e-001 -3.4745064e-001 -3.4733140e-001 
 3.6383277e-001  3.7840784e-001 -1.2691710e-002  1.1492695e-002  1.7121961e-002 -3.4207818e-001 -3.4207818e-001 -3.4193161e-001 
 3.7840849e-001  3.6383209e-001 -1.3001233e-002  1.2580541e-002  1.8091492e-002 -3.3702609e-001 -3.3702609e-001 -3.3686244e-001 
 3.9240077e-001  3.4869534e-001 -1.2796081e-002  1.3166258e-002  1.8360011e-002 -3.3228219e-001 -3.3228219e-001 -3.3211365e-001 
 4.0578800e-001  3.3302093e-001 -1.2147386e-002  1.3200711e-002  1.7939281e-002 -3.2786569e-001 -3.2786569e-001 -3.2770479e-001 
 4.1854951e-001  3.1683302e-001 -1.1123644e-002  1.2647427e-002  1.6843185e-002 -3.2377827e-001 -3.2377827e-001 -3.2363641e-001 
 4.3066561e-001  3.0015659e-001 -9.7958576e-003  1.1477925e-002  1.5089784e-002 -3.2004839e-001 -3.2004839e-001 -3.1993455e-001 
 4.4211763e-001  2.8301734e-001 -8.2385708e-003  9.6796332e-003  1.2710993e-002 -3.1671438e-001 -3.1671438e-001 -3.1663358e-001 
 4.5288801e-001  2.6544169e-001 -6.5296842e-003  7.2577135e-003  9.7627444e-003 -3.1382468e-001 -3.1382468e-001 -3.1377703e-001 
 4.6296006e-001  2.4745670e-001 -4.7510178e-003  4.2333715e-003  6.3634585e-003 -3.1142926e-001 -3.1142926e-001 -3.1140903e-001 