Variables = "x","y", "Velocity_x", "Velocity_y", "Velocity_whole value", "Pressure", "Absolute pressure", "Total pressure"
Zone i=62, j=22
 0.0000000e+000  0.0000000e+000  0.0000000e+000  0.0000000e+000  0.0000000e+000  1.2493643e+000  1.2493643e+000  1.2493643e+000 
 1.2291715e-002  0.0000000e+000  0.0000000e+000  0.0000000e+000  0.0000000e+000  1.1944240e+000  1.1944240e+000  1.1944240e+000 
 3.7736509e-002  0.0000000e+000  0.0000000e+000  0.0000000e+000  0.0000000e+000  1.0806936e+000  1.0806936e+000  1.0806936e+000 
 6.4963534e-002  0.0000000e+000  0.0000000e+000  0.0000000e+000  0.0000000e+000  1.0068378e+000  1.0068378e+000  1.0068378e+000 
 9.4095588e-002  0.0000000e+000  0.0000000e+000  0.0000000e+000  0.0000000e+000  9.5320839e-001  9.5320839e-001  9.5320839e-001 
 1.2526625e-001  0.0000000e+000  0.0000000e+000  0.0000000e+000  0.0000000e+000  9.0522188e-001  9.0522188e-001  9.0522188e-001 
 1.5861896e-001  0.0000000e+000  0.0000000e+000  0.0000000e+000  0.0000000e+000  8.6342406e-001  8.6342406e-001  8.6342406e-001 
 1.9430619e-001  0.0000000e+000  0.0000000e+000  0.0000000e+000  0.0000000e+000  8.3011824e-001  8.3011824e-001  8.3011824e-001 
 2.3249130e-001  0.0000000e+000  0.0000000e+000  0.0000000e+000  0.0000000e+000  8.0620509e-001  8.0620509e-001  8.0620509e-001 
 2.7334976e-001  0.0000000e+000  0.0000000e+000  0.0000000e+000  0.0000000e+000  7.9128474e-001  7.9128474e-001  7.9128474e-001 
 3.1706923e-001  0.0000000e+000  0.0000000e+000  0.0000000e+000  0.0000000e+000  7.8326231e-001  7.8326231e-001  7.8326231e-001 
 3.6384889e-001  0.0000000e+000  0.0000000e+000  0.0000000e+000  0.0000000e+000  7.7921939e-001  7.7921939e-001  7.7921939e-001 
 4.1390228e-001  0.0000000e+000  0.0000000e+000  0.0000000e+000  0.0000000e+000  7.7646273e-001  7.7646273e-001  7.7646273e-001 
 4.6745992e-001  0.0000000e+000  0.0000000e+000  0.0000000e+000  0.0000000e+000  7.7332401e-001  7.7332401e-001  7.7332401e-001 
 5.2476656e-001  0.0000000e+000  0.0000000e+000  0.0000000e+000  0.0000000e+000  7.6916659e-001  7.6916659e-001  7.6916659e-001 
 5.8608472e-001  0.0000000e+000  0.0000000e+000  0.0000000e+000  0.0000000e+000  7.6400876e-001  7.6400876e-001  7.6400876e-001 
 6.5169525e-001  0.0000000e+000  0.0000000e+000  0.0000000e+000  0.0000000e+000  7.5810766e-001  7.5810766e-001  7.5810766e-001 
 7.2189790e-001  0.0000000e+000  0.0000000e+000  0.0000000e+000  0.0000000e+000  7.5171435e-001  7.5171435e-001  7.5171435e-001 
 7.9701531e-001  0.0000000e+000  0.0000000e+000  0.0000000e+000  0.0000000e+000  7.4498010e-001  7.4498010e-001  7.4498010e-001 
 8.7739104e-001  0.0000000e+000  0.0000000e+000  0.0000000e+000  0.0000000e+000  7.3797244e-001  7.3797244e-001  7.3797244e-001 
 9.6339333e-001  0.0000000e+000  0.0000000e+000  0.0000000e+000  0.0000000e+000  7.3068869e-001  7.3068869e-001  7.3068869e-001 
 1.0554160e+000  0.0000000e+000  0.0000000e+000  0.0000000e+000  0.0000000e+000  7.2312355e-001  7.2312355e-001  7.2312355e-001 
 1.1538795e+000  0.0000000e+000  0.0000000e+000  0.0000000e+000  0.0000000e+000  7.1525669e-001  7.1525669e-001  7.1525669e-001 
 1.2592361e+000  0.0000000e+000  0.0000000e+000  0.0000000e+000  0.0000000e+000  7.0707589e-001  7.0707589e-001  7.0707589e-001 
 1.3719671e+000  0.0000000e+000  0.0000000e+000  0.0000000e+000  0.0000000e+000  6.9857502e-001  6.9857502e-001  6.9857502e-001 
 1.4925885e+000  0.0000000e+000  0.0000000e+000  0.0000000e+000  0.0000000e+000  6.8975163e-001  6.8975163e-001  6.8975163e-001 
 1.6216545e+000  0.0000000e+000  0.0000000e+000  0.0000000e+000  0.0000000e+000  6.8059963e-001  6.8059963e-001  6.8059963e-001 
 1.7597550e+000  0.0000000e+000  0.0000000e+000  0.0000000e+000  0.0000000e+000  6.7111206e-001  6.7111206e-001  6.7111206e-001 
 1.9075224e+000  0.0000000e+000  0.0000000e+000  0.0000000e+000  0.0000000e+000  6.6128337e-001  6.6128337e-001  6.6128337e-001 
 2.0656340e+000  0.0000000e+000  0.0000000e+000  0.0000000e+000  0.0000000e+000  6.5109384e-001  6.5109384e-001  6.5109384e-001 
 2.2348135e+000  0.0000000e+000  0.0000000e+000  0.0000000e+000  0.0000000e+000  6.4054221e-001  6.4054221e-001  6.4054221e-001 
 2.4158354e+000  0.0000000e+000  0.0000000e+000  0.0000000e+000  0.0000000e+000  6.2961072e-001  6.2961072e-001  6.2961072e-001 
 2.6095285e+000  0.0000000e+000  0.0000000e+000  0.0000000e+000  0.0000000e+000  6.1828279e-001  6.1828279e-001  6.1828279e-001 
 2.8167806e+000  0.0000000e+000  0.0000000e+000  0.0000000e+000  0.0000000e+000  6.0654056e-001  6.0654056e-001  6.0654056e-001 
 3.0385399e+000  0.0000000e+000  0.0000000e+000  0.0000000e+000  0.0000000e+000  5.9436643e-001  5.9436643e-001  5.9436643e-001 
 3.2758224e+000  0.0000000e+000  0.0000000e+000  0.0000000e+000  0.0000000e+000  5.8173949e-001  5.8173949e-001  5.8173949e-001 
 3.5297146e+000  0.0000000e+000  0.0000000e+000  0.0000000e+000  0.0000000e+000  5.6863922e-001  5.6863922e-001  5.6863922e-001 
 3.8013785e+000  0.0000000e+000  0.0000000e+000  0.0000000e+000  0.0000000e+000  5.5504096e-001  5.5504096e-001  5.5504096e-001 
 4.0920601e+000  0.0000000e+000  0.0000000e+000  0.0000000e+000  0.0000000e+000  5.4092211e-001  5.4092211e-001  5.4092211e-001 
 4.4030900e+000  0.0000000e+000  0.0000000e+000  0.0000000e+000  0.0000000e+000  5.2625048e-001  5.2625048e-001  5.2625048e-001 
 4.7358913e+000  0.0000000e+000  0.0000000e+000  0.0000000e+000  0.0000000e+000  5.1101065e-001  5.1101065e-001  5.1101065e-001 
 5.0919890e+000  0.0000000e+000  0.0000000e+000  0.0000000e+000  0.0000000e+000  4.9516425e-001  4.9516425e-001  4.9516425e-001 
 5.4730139e+000  0.0000000e+000  0.0000000e+000  0.0000000e+000  0.0000000e+000  4.7868821e-001  4.7868821e-001  4.7868821e-001 
 5.8807087e+000  0.0000000e+000  0.0000000e+000  0.0000000e+000  0.0000000e+000  4.6154025e-001  4.6154025e-001  4.6154025e-001 
 6.3169422e+000  0.0000000e+000  0.0000000e+000  0.0000000e+000  0.0000000e+000  4.4369653e-001  4.4369653e-001  4.4369653e-001 
 6.7837143e+000  0.0000000e+000  0.0000000e+000  0.0000000e+000  0.0000000e+000  4.2510664e-001  4.2510664e-001  4.2510664e-001 
 7.2831593e+000  0.0000000e+000  0.0000000e+000  0.0000000e+000  0.0000000e+000  4.0574417e-001  4.0574417e-001  4.0574417e-001 
 7.8175659e+000  0.0000000e+000  0.0000000e+000  0.0000000e+000  0.0000000e+000  3.8555261e-001  3.8555261e-001  3.8555261e-001 
 8.3893795e+000  0.0000000e+000  0.0000000e+000  0.0000000e+000  0.0000000e+000  3.6449781e-001  3.6449781e-001  3.6449781e-001 
 9.0012217e+000  0.0000000e+000  0.0000000e+000  0.0000000e+000  0.0000000e+000  3.4251830e-001  3.4251830e-001  3.4251830e-001 
 9.6558924e+000  0.0000000e+000  0.0000000e+000  0.0000000e+000  0.0000000e+000  3.1956786e-001  3.1956786e-001  3.1956786e-001 
 1.0356388e+001  0.0000000e+000  0.0000000e+000  0.0000000e+000  0.0000000e+000  2.9557824e-001  2.9557824e-001  2.9557824e-001 
 1.1105920e+001  0.0000000e+000  0.0000000e+000  0.0000000e+000  0.0000000e+000  2.7048844e-001  2.7048844e-001  2.7048844e-001 
 1.1907920e+001  0.0000000e+000  0.0000000e+000  0.0000000e+000  0.0000000e+000  2.4421924e-001  2.4421924e-001  2.4421924e-001 
 1.2766060e+001  0.0000000e+000  0.0000000e+000  0.0000000e+000  0.0000000e+000  2.1669051e-001  2.1669051e-001  2.1669051e-001 
 1.3684270e+001  0.0000000e+000  0.0000000e+000  0.0000000e+000  0.0000000e+000  1.8780962e-001  1.8780962e-001  1.8780962e-001 
 1.4666756e+001  0.0000000e+000  0.0000000e+000  0.0000000e+000  0.0000000e+000  1.5746507e-001  1.5746507e-001  1.5746507e-001 
 1.5718015e+001  0.0000000e+000  0.0000000e+000  0.0000000e+000  0.0000000e+000  1.2556443e-001  1.2556443e-001  1.2556443e-001 
 1.6842865e+001  0.0000000e+000  0.0000000e+000  0.0000000e+000  0.0000000e+000  9.1934904e-002  9.1934904e-002  9.1934904e-002 
 1.8046452e+001  0.0000000e+000  0.0000000e+000  0.0000000e+000  0.0000000e+000  5.6517843e-002  5.6517843e-002  5.6517843e-002 
 1.9334295e+001  0.0000000e+000  0.0000000e+000  0.0000000e+000  0.0000000e+000  1.8891515e-002  1.8891515e-002  1.8891515e-002 
 2.0000000e+001  0.0000000e+000  0.0000000e+000  0.0000000e+000  0.0000000e+000 -5.5805442e-004 -5.5805442e-004 -5.5805442e-004 
 0.0000000e+000  1.5686335e-002  1.0000000e+000  0.0000000e+000  1.0000000e+000  1.1867810e+000  1.1867810e+000  1.6867810e+000 
 1.2291715e-002  1.5686335e-002  9.7290468e-001  9.0726145e-002  9.7712576e-001  1.1436611e+000  1.1436611e+000  1.6210486e+000 
 3.7736509e-002  1.5686335e-002  9.0761065e-001  1.0233908e-001  9.1336215e-001  1.0544000e+000  1.0544000e+000  1.4715152e+000 
 6.4963534e-002  1.5686335e-002  8.1874782e-001  9.6177325e-002  8.2437736e-001  9.9233449e-001  9.9233449e-001  1.3321335e+000 
 9.4095588e-002  1.5686335e-002  7.1850997e-001  8.2104757e-002  7.2318584e-001  9.4409978e-001  9.4409978e-001  1.2055987e+000 
 1.2526625e-001  1.5686335e-002  6.1964285e-001  6.4796641e-002  6.2302154e-001  9.0021998e-001  9.0021998e-001  1.0942979e+000 
 1.5861896e-001  1.5686335e-002  5.2765530e-001  4.5796808e-002  5.2963901e-001  8.6211908e-001  8.6211908e-001  1.0023779e+000 
 1.9430619e-001  1.5686335e-002  4.4740379e-001  2.8371094e-002  4.4830242e-001  8.3148521e-001  8.3148521e-001  9.3197274e-001 
 2.3249130e-001  1.5686335e-002  3.8244426e-001  1.4680904e-002  3.8272592e-001  8.0915427e-001  8.0915427e-001  8.8239384e-001 
 2.7334976e-001  1.5686335e-002  3.3356479e-001  5.3283307e-003  3.3360735e-001  7.9480928e-001  7.9480928e-001  8.5045624e-001 
 3.1706923e-001  1.5686335e-002  2.9890254e-001  9.6573967e-006  2.9890254e-001  7.8662300e-001  7.8662300e-001  8.3129436e-001 
 3.6384889e-001  1.5686335e-002  2.7507314e-001 -2.1106834e-003  2.7508125e-001  7.8198016e-001  7.8198016e-001  8.1981498e-001 
 4.1390228e-001  1.5686335e-002  2.5832659e-001 -2.3335479e-003  2.5833714e-001  7.7854317e-001  7.7854317e-001  8.1191224e-001 
 4.6745992e-001  1.5686335e-002  2.4555615e-001 -1.8073594e-003  2.4556279e-001  7.7482450e-001  7.7482450e-001  8.0497503e-001 
 5.2476656e-001  1.5686335e-002  2.3475252e-001 -1.1356829e-003  2.3475526e-001  7.7025014e-001  7.7025014e-001  7.9780513e-001 
 5.8608472e-001  1.5686335e-002  2.2491436e-001 -6.0851505e-004  2.2491518e-001  7.6480740e-001  7.6480740e-001  7.9010081e-001 
 6.5169525e-001  1.5686335e-002  2.1570563e-001 -2.8137636e-004  2.1570581e-001  7.5871533e-001  7.5871533e-001  7.8197986e-001 
 7.2189790e-001  1.5686335e-002  2.0711792e-001 -1.0474739e-004  2.0711794e-001  7.5218946e-001  7.5218946e-001  7.7363837e-001 
 7.9701531e-001  1.5686335e-002  1.9919583e-001 -1.5965910e-005  1.9919583e-001  7.4535823e-001  7.4535823e-001  7.6519769e-001 
 8.7739104e-001  1.5686335e-002  1.9197260e-001  2.5690291e-005  1.9197260e-001  7.3827726e-001  7.3827726e-001  7.5670397e-001 
 9.6339333e-001  1.5686335e-002  1.8539530e-001  5.0896393e-005  1.8539530e-001  7.3093677e-001  7.3093677e-001  7.4812245e-001 
 1.0554160e+000  1.5686335e-002  1.7938936e-001  6.3138890e-005  1.7938937e-001  7.2332805e-001  7.2332805e-001  7.3941833e-001 
 1.1538795e+000  1.5686335e-002  1.7387666e-001  7.0893475e-005  1.7387667e-001  7.1542716e-001  7.1542716e-001  7.3054373e-001 
 1.2592361e+000  1.5686335e-002  1.6877916e-001  7.5017517e-005  1.6877918e-001  7.0721948e-001  7.0721948e-001  7.2146267e-001 
 1.3719671e+000  1.5686335e-002  1.6403314e-001  7.6084478e-005  1.6403316e-001  6.9869715e-001  6.9869715e-001  7.1215057e-001 
 1.4925885e+000  1.5686335e-002  1.5959410e-001  7.4495423e-005  1.5959412e-001  6.8985641e-001  6.8985641e-001  7.0259154e-001 
 1.6216545e+000  1.5686335e-002  1.5543252e-001  7.1513641e-005  1.5543254e-001  6.8069005e-001  6.8069005e-001  6.9276971e-001 
 1.7597550e+000  1.5686335e-002  1.5151368e-001  6.7627465e-005  1.5151370e-001  6.7119038e-001  6.7119038e-001  6.8266857e-001 
 1.9075224e+000  1.5686335e-002  1.4782892e-001  6.2724386e-005  1.4782894e-001  6.6135144e-001  6.6135144e-001  6.7227817e-001 
 2.0656340e+000  1.5686335e-002  1.4434731e-001  5.8915310e-005  1.4434732e-001  6.5115321e-001  6.5115321e-001  6.6157126e-001 
 2.2348135e+000  1.5686335e-002  1.4105123e-001  5.3938675e-005  1.4105125e-001  6.4059430e-001  6.4059430e-001  6.5054202e-001 
 2.4158354e+000  1.5686335e-002  1.3793194e-001  4.9386766e-005  1.3793196e-001  6.2965637e-001  6.2965637e-001  6.3916898e-001 
 2.6095285e+000  1.5686335e-002  1.3497777e-001  4.4994311e-005  1.3497779e-001  6.1832285e-001  6.1832285e-001  6.2743235e-001 
 2.8167806e+000  1.5686335e-002  1.3217545e-001  4.0916388e-005  1.3217545e-001  6.0657591e-001  6.0657591e-001  6.1531109e-001 
 3.0385399e+000  1.5686335e-002  1.2951756e-001  3.6983387e-005  1.2951756e-001  5.9439760e-001  5.9439760e-001  6.0278499e-001 
 3.2758224e+000  1.5686335e-002  1.2699267e-001  3.3721364e-005  1.2699267e-001  5.8176696e-001  5.8176696e-001  5.8983052e-001 
 3.5297146e+000  1.5686335e-002  1.2459741e-001  3.0419553e-005  1.2459741e-001  5.6866348e-001  5.6866348e-001  5.7642573e-001 
 3.8013785e+000  1.5686335e-002  1.2231898e-001  2.7361921e-005  1.2231898e-001  5.5506241e-001  5.5506241e-001  5.6254339e-001 
 4.0920601e+000  1.5686335e-002  1.2016089e-001  2.4587824e-005  1.2016089e-001  5.4094106e-001  5.4094106e-001  5.4816037e-001 
 4.4030900e+000  1.5686335e-002  1.1810417e-001  2.2423004e-005  1.1810417e-001  5.2626723e-001  5.2626723e-001  5.3324151e-001 
 4.7358913e+000  1.5686335e-002  1.1615127e-001  2.0041782e-005  1.1615127e-001  5.1102549e-001  5.1102549e-001  5.1777107e-001 
 5.0919890e+000  1.5686335e-002  1.1429110e-001  1.8095969e-005  1.1429110e-001  4.9517739e-001  4.9517739e-001  5.0170863e-001 
 5.4730139e+000  1.5686335e-002  1.1252984e-001  1.6014968e-005  1.1252984e-001  4.7869986e-001  4.7869986e-001  4.8503134e-001 
 5.8807087e+000  1.5686335e-002  1.1085142e-001  1.4483483e-005  1.1085142e-001  4.6155059e-001  4.6155059e-001  4.6769461e-001 
 6.3169422e+000  1.5686335e-002  1.0926532e-001  1.2875319e-005  1.0926532e-001  4.4370559e-001  4.4370559e-001  4.4967505e-001 
 6.7837143e+000  1.5686335e-002  1.0775518e-001  1.1571085e-005  1.0775518e-001  4.2511466e-001  4.2511466e-001  4.3092024e-001 
 7.2831593e+000  1.5686335e-002  1.0633159e-001  1.0170428e-005  1.0633159e-001  4.0575126e-001  4.0575126e-001  4.1140446e-001 
 7.8175659e+000  1.5686335e-002  1.0497911e-001  9.1438997e-006  1.0497911e-001  3.8555887e-001  3.8555887e-001  3.9106917e-001 
 8.3893795e+000  1.5686335e-002  1.0370886e-001  8.1012358e-006  1.0370886e-001  3.6450329e-001  3.6450329e-001  3.6988106e-001 
 9.0012217e+000  1.5686335e-002  1.0250592e-001  7.2630273e-006  1.0250592e-001  3.4252310e-001  3.4252310e-001  3.4777683e-001 
 9.6558924e+000  1.5686335e-002  1.0138310e-001  6.3603625e-006  1.0138310e-001  3.1957206e-001  3.1957206e-001  3.2471132e-001 
 1.0356388e+001  1.5686335e-002  1.0032560e-001  5.5918613e-006  1.0032560e-001  2.9558191e-001  2.9558191e-001  3.0061451e-001 
 1.1105920e+001  1.5686335e-002  9.9346623e-002  4.8908701e-006  9.9346623e-002  2.7049163e-001  2.7049163e-001  2.7542651e-001 
 1.1907920e+001  1.5686335e-002  9.8433636e-002  4.2286683e-006  9.8433636e-002  2.4422196e-001  2.4422196e-001  2.4906655e-001 
 1.2766060e+001  1.5686335e-002  9.7595334e-002  3.6881265e-006  9.7595334e-002  2.1669285e-001  2.1669285e-001  2.2145528e-001 
 1.3684270e+001  1.5686335e-002  9.6830077e-002  3.1262343e-006  9.6830077e-002  1.8781164e-001  1.8781164e-001  1.9249967e-001 
 1.4666756e+001  1.5686335e-002  9.6125573e-002  2.6875023e-006  9.6125573e-002  1.5746675e-001  1.5746675e-001  1.6208681e-001 
 1.5718015e+001  1.5686335e-002  9.5513552e-002  2.1755545e-006  9.5513552e-002  1.2556586e-001  1.2556586e-001  1.3012728e-001 
 1.6842865e+001  1.5686335e-002  9.4919048e-002  1.8991510e-006  9.4919048e-002  9.1936029e-002  9.1936029e-002  9.6440844e-002 
 1.8046452e+001  1.5686335e-002  9.4507210e-002  1.4582041e-006  9.4507210e-002  5.6518894e-002  5.6518894e-002  6.0984701e-002 
 1.9334295e+001  1.5686335e-002  9.3876593e-002  8.6306795e-007  9.3876593e-002  1.8892098e-002  1.8892098e-002  2.3298506e-002 
 2.0000000e+001  1.5686335e-002  9.3876593e-002  8.6215579e-007  9.3876593e-002  0.0000000e+000  0.0000000e+000  4.4064075e-003 
 0.0000000e+000  4.8627645e-002  1.0000000e+000  0.0000000e+000  1.0000000e+000  1.0553561e+000  1.0553561e+000  1.5553561e+000 
 1.2291715e-002  4.8627645e-002  1.0159098e+000  4.2124823e-002  1.0167828e+000  1.0370593e+000  1.0370593e+000  1.5539829e+000 
 3.7736509e-002  4.8627645e-002  1.0428249e+000  8.8170886e-002  1.0465456e+000  9.9918371e-001  9.9918371e-001  1.5468127e+000 
 6.4963534e-002  4.8627645e-002  1.0593131e+000  1.1198078e-001  1.0652153e+000  9.6187752e-001  9.6187752e-001  1.5292195e+000 
 9.4095588e-002  4.8627645e-002  1.0618998e+000  1.2257677e-001  1.0689510e+000  9.2497188e-001  9.2497188e-001  1.4963000e+000 
 1.2526625e-001  4.8627645e-002  1.0530808e+000  1.2155078e-001  1.0600725e+000  8.8971615e-001  8.8971615e-001  1.4515930e+000 
 1.5861896e-001  4.8627645e-002  1.0315629e+000  1.1257429e-001  1.0376873e+000  8.5937864e-001  8.5937864e-001  1.3977761e+000 
 1.9430619e-001  4.8627645e-002  9.9927926e-001  9.7532041e-002  1.0040276e+000  8.3435583e-001  8.3435583e-001  1.3383915e+000 
 2.3249130e-001  4.8627645e-002  9.5878643e-001  7.8899741e-002  9.6202731e-001  8.1534749e-001  8.1534749e-001  1.2780958e+000 
 2.7334976e-001  4.8627645e-002  9.1309863e-001  6.0072172e-002  9.1507256e-001  8.0221087e-001  8.0221087e-001  1.2208898e+000 
 3.1706923e-001  4.8627645e-002  8.6516654e-001  4.3688770e-002  8.6626893e-001  7.9368043e-001  7.9368043e-001  1.1688913e+000 
 3.6384889e-001  4.8627645e-002  8.1828588e-001  3.1098098e-002  8.1887662e-001  7.8777772e-001  7.8777772e-001  1.1230571e+000 
 4.1390228e-001  4.8627645e-002  7.7429992e-001  2.2469420e-002  7.7462590e-001  7.8291208e-001  7.8291208e-001  1.0829347e+000 
 4.6745992e-001  4.8627645e-002  7.3411012e-001  1.6999951e-002  7.3430693e-001  7.7797562e-001  7.7797562e-001  1.0475789e+000 
 5.2476656e-001  4.8627645e-002  6.9788206e-001  1.3497290e-002  6.9801259e-001  7.7252543e-001  7.7252543e-001  1.0161362e+000 
 5.8608472e-001  4.8627645e-002  6.6540080e-001  1.1114562e-002  6.6549361e-001  7.6648438e-001  7.6648438e-001  9.8792523e-001 
 6.5169525e-001  4.8627645e-002  6.3625687e-001  9.2959842e-003  6.3632476e-001  7.5999141e-001  7.5999141e-001  9.6244603e-001 
 7.2189790e-001  4.8627645e-002  6.1006480e-001  7.7942014e-003  6.1011457e-001  7.5318700e-001  7.5318700e-001  9.3930691e-001 
 7.9701531e-001  4.8627645e-002  5.8644134e-001  6.5283547e-003  5.8647770e-001  7.4615228e-001  7.4615228e-001  9.1813034e-001 
 8.7739104e-001  4.8627645e-002  5.6510359e-001  5.4661133e-003  5.6513005e-001  7.3891735e-001  7.3891735e-001  8.9860332e-001 
 9.6339333e-001  4.8627645e-002  5.4573321e-001  4.6107206e-003  5.4575270e-001  7.3145777e-001  7.3145777e-001  8.8038075e-001 
 1.0554160e+000  4.8627645e-002  5.2806026e-001  3.9153988e-003  5.2807480e-001  7.2375751e-001  7.2375751e-001  8.6318898e-001 
 1.1538795e+000  4.8627645e-002  5.1184785e-001  3.3568928e-003  5.1185888e-001  7.1578503e-001  7.1578503e-001  8.4678477e-001 
 1.2592361e+000  4.8627645e-002  4.9688569e-001  2.9033127e-003  4.9689418e-001  7.0752108e-001  7.0752108e-001  8.3097297e-001 
 1.3719671e+000  4.8627645e-002  4.8299739e-001  2.5288281e-003  4.8300400e-001  6.9895381e-001  6.9895381e-001  8.1560022e-001 
 1.4925885e+000  4.8627645e-002  4.7004658e-001  2.2112851e-003  4.7005180e-001  6.9007653e-001  6.9007653e-001  8.0055088e-001 
 1.6216545e+000  4.8627645e-002  4.5793852e-001  1.9407303e-003  4.5794263e-001  6.8088001e-001  6.8088001e-001  7.8573573e-001 
 1.7597550e+000  4.8627645e-002  4.4656593e-001  1.7072803e-003  4.4656920e-001  6.7135495e-001  6.7135495e-001  7.7106696e-001 
 1.9075224e+000  4.8627645e-002  4.3588984e-001  1.5024287e-003  4.3589243e-001  6.6149449e-001  6.6149449e-001  7.5649559e-001 
 2.0656340e+000  4.8627645e-002  4.2582247e-001  1.3297241e-003  4.2582455e-001  6.5127802e-001  6.5127802e-001  7.4194127e-001 
 2.2348135e+000  4.8627645e-002  4.1630951e-001  1.1756774e-003  4.1631117e-001  6.4070368e-001  6.4070368e-001  7.2736114e-001 
 2.4158354e+000  4.8627645e-002  4.0731350e-001  1.0406390e-003  4.0731484e-001  6.2975228e-001  6.2975228e-001  7.1270496e-001 
 2.6095285e+000  4.8627645e-002  3.9880097e-001  9.2206860e-004  3.9880204e-001  6.1840719e-001  6.1840719e-001  6.9792873e-001 
 2.8167806e+000  4.8627645e-002  3.9073271e-001  8.1756315e-004  3.9073357e-001  6.0665011e-001  6.0665011e-001  6.8298650e-001 
 3.0385399e+000  4.8627645e-002  3.8308582e-001  7.2541629e-004  3.8308650e-001  5.9446305e-001  5.9446305e-001  6.6784066e-001 
 3.2758224e+000  4.8627645e-002  3.7582612e-001  6.4391905e-004  3.7582669e-001  5.8182472e-001  5.8182472e-001  6.5244758e-001 
 3.5297146e+000  4.8627645e-002  3.6894348e-001  5.7150546e-004  3.6894393e-001  5.6871444e-001  5.6871444e-001  6.3677424e-001 
 3.8013785e+000  4.8627645e-002  3.6239937e-001  5.0748134e-004  3.6239973e-001  5.5510741e-001  5.5510741e-001  6.2077421e-001 
 4.0920601e+000  4.8627645e-002  3.5620359e-001  4.5028579e-004  3.5620388e-001  5.4098082e-001  5.4098082e-001  6.0442144e-001 
 4.4030900e+000  4.8627645e-002  3.5030356e-001  4.0099357e-004  3.5030380e-001  5.2630246e-001  5.2630246e-001  5.8765882e-001 
 4.7358913e+000  4.8627645e-002  3.4470618e-001  3.5595635e-004  3.4470636e-001  5.1105666e-001  5.1105666e-001  5.7046789e-001 
 5.0919890e+000  4.8627645e-002  3.3937597e-001  3.1634438e-004  3.3937612e-001  4.9520493e-001  4.9520493e-001  5.5279303e-001 
 5.4730139e+000  4.8627645e-002  3.3433259e-001  2.8063660e-004  3.3433270e-001  4.7872424e-001  4.7872424e-001  5.3461343e-001 
 5.8807087e+000  4.8627645e-002  3.2952836e-001  2.4929695e-004  3.2952845e-001  4.6157223e-001  4.6157223e-001  5.1586676e-001 
 6.3169422e+000  4.8627645e-002  3.2499269e-001  2.2070893e-004  3.2499278e-001  4.4372463e-001  4.4372463e-001  4.9653479e-001 
 6.7837143e+000  4.8627645e-002  3.2067582e-001  1.9582342e-004  3.2067588e-001  4.2513150e-001  4.2513150e-001  4.7654802e-001 
 7.2831593e+000  4.8627645e-002  3.1661108e-001  1.7290110e-004  3.1661114e-001  4.0576613e-001  4.0576613e-001  4.5588744e-001 
 7.8175659e+000  4.8627645e-002  3.1275025e-001  1.5289764e-004  3.1275028e-001  3.8557199e-001  3.8557199e-001  4.3447837e-001 
 8.3893795e+000  4.8627645e-002  3.0912927e-001  1.3460522e-004  3.0912930e-001  3.6451480e-001  3.6451480e-001  4.1229525e-001 
 9.0012217e+000  4.8627645e-002  3.0570078e-001  1.1844800e-004  3.0570081e-001  3.4253320e-001  3.4253320e-001  3.8925970e-001 
 9.6558924e+000  4.8627645e-002  3.0250570e-001  1.0370710e-004  3.0250573e-001  3.1958091e-001  3.1958091e-001  3.6533576e-001 
 1.0356388e+001  4.8627645e-002  2.9949698e-001  9.0614376e-005  2.9949698e-001  2.9558960e-001  2.9558960e-001  3.4043881e-001 
 1.1105920e+001  4.8627645e-002  2.9671618e-001  7.8603705e-005  2.9671618e-001  2.7049831e-001  2.7049831e-001  3.1451854e-001 
 1.1907920e+001  4.8627645e-002  2.9412338e-001  6.8060042e-005  2.9412338e-001  2.4422771e-001  2.4422771e-001  2.8748199e-001 
 1.2766060e+001  4.8627645e-002  2.9174614e-001  5.8231373e-005  2.9174614e-001  2.1669777e-001  2.1669777e-001  2.5925568e-001 
 1.3684270e+001  4.8627645e-002  2.8957701e-001  4.9863218e-005  2.8957701e-001  1.8781586e-001  1.8781586e-001  2.2974329e-001 
 1.4666756e+001  4.8627645e-002  2.8758162e-001  4.1865311e-005  2.8758162e-001  1.5747029e-001  1.5747029e-001  1.9882189e-001 
 1.5718015e+001  4.8627645e-002  2.8585264e-001  3.5623027e-005  2.8585264e-001  1.2556885e-001  1.2556885e-001  1.6642472e-001 
 1.6842865e+001  4.8627645e-002  2.8416616e-001  2.8342012e-005  2.8416616e-001  9.1938399e-002  9.1938399e-002  1.3231359e-001 
 1.8046452e+001  4.8627645e-002  2.8300539e-001  2.5823614e-005  2.8300539e-001  5.6521099e-002  5.6521099e-002  9.6567124e-002 
 1.9334295e+001  4.8627645e-002  2.8122756e-001  1.6457047e-005  2.8122756e-001  1.8893318e-002  1.8893318e-002  5.8437787e-002 
 2.0000000e+001  4.8627645e-002  2.8122756e-001  1.6459078e-005  2.8122756e-001  0.0000000e+000  0.0000000e+000  3.9544471e-002 
 0.0000000e+000  8.4863111e-002  1.0000000e+000  0.0000000e+000  1.0000000e+000  9.7619337e-001  9.7619337e-001  1.4761934e+000 
 1.2291715e-002  8.4863111e-002  1.0042384e+000  1.9649928e-002  1.0044307e+000  9.7124904e-001  9.7124904e-001  1.4756894e+000 
 3.7736509e-002  8.4863111e-002  1.0181003e+000  4.9903926e-002  1.0193226e+000  9.6101409e-001  9.6101409e-001  1.4805233e+000 
 6.4963534e-002  8.4863111e-002  1.0398465e+000  7.3191479e-002  1.0424192e+000  9.4063312e-001  9.4063312e-001  1.4839520e+000 
 9.4095588e-002  8.4863111e-002  1.0633546e+000  8.9604914e-002  1.0671233e+000  9.1583782e-001  9.1583782e-001  1.4852139e+000 
 1.2526625e-001  8.4863111e-002  1.0845037e+000  9.9400371e-002  1.0890495e+000  8.9071292e-001  8.9071292e-001  1.4837272e+000 
 1.5861896e-001  8.4863111e-002  1.0999563e+000  1.0092053e-001  1.1045762e+000  8.6649311e-001  8.6649311e-001  1.4765375e+000 
 1.9430619e-001  8.4863111e-002  1.1100860e+000  9.7303614e-002  1.1143423e+000  8.4439766e-001  8.4439766e-001  1.4652771e+000 
 2.3249130e-001  8.4863111e-002  1.1121331e+000  8.9638256e-002  1.1157397e+000  8.2510585e-001  8.2510585e-001  1.4475434e+000 
 2.7334976e-001  8.4863111e-002  1.1077925e+000  7.9816140e-002  1.1106641e+000  8.0968165e-001  8.0968165e-001  1.4264691e+000 
 3.1706923e-001  8.4863111e-002  1.0964254e+000  6.9460012e-002  1.0986234e+000  7.9882002e-001  7.9882002e-001  1.4023067e+000 
 3.6384889e-001  8.4863111e-002  1.0796502e+000  5.9680171e-002  1.0812984e+000  7.9098761e-001  7.9098761e-001  1.3755907e+000 
 4.1390228e-001  8.4863111e-002  1.0590994e+000  5.1066916e-002  1.0603299e+000  7.8477645e-001  7.8477645e-001  1.3469262e+000 
 4.6745992e-001  8.4863111e-002  1.0361323e+000  4.3825280e-002  1.0370587e+000  7.7918297e-001  7.7918297e-001  1.3169284e+000 
 5.2476656e-001  8.4863111e-002  1.0116347e+000  3.7638769e-002  1.0123347e+000  7.7351063e-001  7.7351063e-001  1.2859213e+000 
 5.8608472e-001  8.4863111e-002  9.8647362e-001  3.2311738e-002  9.8700267e-001  7.6740688e-001  7.6740688e-001  1.2544940e+000 
 6.5169525e-001  8.4863111e-002  9.6101785e-001  2.7689796e-002  9.6141666e-001  7.6089263e-001  7.6089263e-001  1.2230537e+000 
 7.2189790e-001  8.4863111e-002  9.3559670e-001  2.3680475e-002  9.3589634e-001  7.5404477e-001  7.5404477e-001  1.1919957e+000 
 7.9701531e-001  8.4863111e-002  9.1047090e-001  2.0212850e-002  9.1069525e-001  7.4693495e-001  7.4693495e-001  1.1616179e+000 
 8.7739104e-001  8.4863111e-002  8.8593781e-001  1.7229013e-002  8.8610530e-001  7.3960161e-001  7.3960161e-001  1.1321930e+000 
 9.6339333e-001  8.4863111e-002  8.6219984e-001  1.4721616e-002  8.6232549e-001  7.3203641e-001  7.3203641e-001  1.1038390e+000 
 1.0554160e+000  8.4863111e-002  8.3941180e-001  1.2606105e-002  8.3950645e-001  7.2423941e-001  7.2423941e-001  1.0766250e+000 
 1.1538795e+000  8.4863111e-002  8.1767672e-001  1.0841439e-002  8.1774861e-001  7.1618140e-001  7.1618140e-001  1.0505378e+000 
 1.2592361e+000  8.4863111e-002  7.9702848e-001  9.3693333e-003  7.9708356e-001  7.0784676e-001  7.0784676e-001  1.0255178e+000 
 1.3719671e+000  8.4863111e-002  7.7745175e-001  8.1355637e-003  7.7749431e-001  6.9922286e-001  6.9922286e-001  1.0014715e+000 
 1.4925885e+000  8.4863111e-002  7.5890177e-001  7.0882719e-003  7.5893486e-001  6.9030041e-001  6.9030041e-001  9.7829145e-001 
 1.6216545e+000  8.4863111e-002  7.4133915e-001  6.1982358e-003  7.4136508e-001  6.8106753e-001  6.8106753e-001  9.5587862e-001 
 1.7597550e+000  8.4863111e-002  7.2467530e-001  5.4344027e-003  7.2469568e-001  6.7151350e-001  6.7151350e-001  9.3410540e-001 
 1.9075224e+000  8.4863111e-002  7.0889086e-001  4.7716275e-003  7.0890689e-001  6.6162908e-001  6.6162908e-001  9.1290361e-001 
 2.0656340e+000  8.4863111e-002  6.9389790e-001  4.2086216e-003  6.9391066e-001  6.5139276e-001  6.5139276e-001  8.9214879e-001 
 2.2348135e+000  8.4863111e-002  6.7964286e-001  3.7148946e-003  6.7965299e-001  6.4080250e-001  6.4080250e-001  8.7176663e-001 
 2.4158354e+000  8.4863111e-002  6.6608441e-001  3.2830841e-003  6.6609251e-001  6.2983769e-001  6.2983769e-001  8.5167730e-001 
 2.6095285e+000  8.4863111e-002  6.5319085e-001  2.9048393e-003  6.5319729e-001  6.1848122e-001  6.1848122e-001  8.3181459e-001 
 2.8167806e+000  8.4863111e-002  6.4091724e-001  2.5728405e-003  6.4092243e-001  6.0671443e-001  6.0671443e-001  8.1210518e-001 
 3.0385399e+000  8.4863111e-002  6.2924176e-001  2.2802143e-003  6.2924588e-001  5.9451920e-001  5.9451920e-001  7.9249442e-001 
 3.2758224e+000  8.4863111e-002  6.1812013e-001  2.0217078e-003  6.1812341e-001  5.8187371e-001  5.8187371e-001  7.7291203e-001 
 3.5297146e+000  8.4863111e-002  6.0754645e-001  1.7934579e-003  6.0754907e-001  5.6875736e-001  5.6875736e-001  7.5331533e-001 
 3.8013785e+000  8.4863111e-002  5.9746659e-001  1.5907325e-003  5.9746873e-001  5.5514503e-001  5.5514503e-001  7.3362947e-001 
 4.0920601e+000  8.4863111e-002  5.8790135e-001  1.4108556e-003  5.8790302e-001  5.4101378e-001  5.4101378e-001  7.1382880e-001 
 4.4030900e+000  8.4863111e-002  5.7877713e-001  1.2540017e-003  5.7877851e-001  5.2633142e-001  5.2633142e-001  6.9382370e-001 
 4.7358913e+000  8.4863111e-002  5.7011038e-001  1.1132647e-003  5.7011145e-001  5.1108211e-001  5.1108211e-001  6.7359567e-001 
 5.0919890e+000  8.4863111e-002  5.6184435e-001  9.8825025e-004  5.6184524e-001  4.9522734e-001  4.9522734e-001  6.5306234e-001 
 5.4730139e+000  8.4863111e-002  5.5401599e-001  8.7614369e-004  5.5401671e-001  4.7874391e-001  4.7874391e-001  6.3221115e-001 
 5.8807087e+000  8.4863111e-002  5.4655093e-001  7.7732408e-004  5.4655147e-001  4.6158952e-001  4.6158952e-001  6.1094880e-001 
 6.3169422e+000  8.4863111e-002  5.3950149e-001  6.8797031e-004  5.3950191e-001  4.4373989e-001  4.4373989e-001  5.8927107e-001 